PSF

       1 !NTITLE
 REMARKS coarse-grained polymer chain

    1000 !NATOM
       1 POLY   1 POL  CG    CG    0.000  1.000
       2 POLY   1 POL  CG    CG    0.000  1.000
       3 POLY   1 POL  CG    CG    0.000  1.000
       4 POLY   1 POL  CG    CG    0.000  1.000
       5 POLY   1 POL  CG    CG    0.000  1.000
       6 POLY   1 POL  CG    CG    0.000  1.000
       7 POLY   1 POL  CG    CG    0.000  1.000
       8 POLY   1 POL  CG    CG    0.000  1.000
       9 POLY   1 POL  CG    CG    0.000  1.000
      10 POLY   1 POL  CG    CG    0.000  1.000
      11 POLY   1 POL  CG    CG    0.000  1.000
      12 POLY   1 POL  CG    CG    0.000  1.000
      13 POLY   1 POL  CG    CG    0.000  1.000
      14 POLY   1 POL  CG    CG    0.000  1.000
      15 POLY   1 POL  CG    CG    0.000  1.000
      16 POLY   1 POL  CG    CG    0.000  1.000
      17 POLY   1 POL  CG    CG    0.000  1.000
      18 POLY   1 POL  CG    CG    0.000  1.000
      19 POLY   1 POL  CG    CG    0.000  1.000
      20 POLY   1 POL  CG    CG    0.000  1.000
      21 POLY   1 POL  CG    CG    0.000  1.000
      22 POLY   1 POL  CG    CG    0.000  1.000
      23 POLY   1 POL  CG    CG    0.000  1.000
      24 POLY   1 POL  CG    CG    0.000  1.000
      25 POLY   1 POL  CG    CG    0.000  1.000
      26 POLY   1 POL  CG    CG    0.000  1.000
      27 POLY   1 POL  CG    CG    0.000  1.000
      28 POLY   1 POL  CG    CG    0.000  1.000
      29 POLY   1 POL  CG    CG    0.000  1.000
      30 POLY   1 POL  CG    CG    0.000  1.000
      31 POLY   1 POL  CG    CG    0.000  1.000
      32 POLY   1 POL  CG    CG    0.000  1.000
      33 POLY   1 POL  CG    CG    0.000  1.000
      34 POLY   1 POL  CG    CG    0.000  1.000
      35 POLY   1 POL  CG    CG    0.000  1.000
      36 POLY   1 POL  CG    CG    0.000  1.000
      37 POLY   1 POL  CG    CG    0.000  1.000
      38 POLY   1 POL  CG    CG    0.000  1.000
      39 POLY   1 POL  CG    CG    0.000  1.000
      40 POLY   1 POL  CG    CG    0.000  1.000
      41 POLY   1 POL  CG    CG    0.000  1.000
      42 POLY   1 POL  CG    CG    0.000  1.000
      43 POLY   1 POL  CG    CG    0.000  1.000
      44 POLY   1 POL  CG    CG    0.000  1.000
      45 POLY   1 POL  CG    CG    0.000  1.000
      46 POLY   1 POL  CG    CG    0.000  1.000
      47 POLY   1 POL  CG    CG    0.000  1.000
      48 POLY   1 POL  CG    CG    0.000  1.000
      49 POLY   1 POL  CG    CG    0.000  1.000
      50 POLY   1 POL  CG    CG    0.000  1.000
      51 POLY   1 POL  CG    CG    0.000  1.000
      52 POLY   1 POL  CG    CG    0.000  1.000
      53 POLY   1 POL  CG    CG    0.000  1.000
      54 POLY   1 POL  CG    CG    0.000  1.000
      55 POLY   1 POL  CG    CG    0.000  1.000
      56 POLY   1 POL  CG    CG    0.000  1.000
      57 POLY   1 POL  CG    CG    0.000  1.000
      58 POLY   1 POL  CG    CG    0.000  1.000
      59 POLY   1 POL  CG    CG    0.000  1.000
      60 POLY   1 POL  CG    CG    0.000  1.000
      61 POLY   1 POL  CG    CG    0.000  1.000
      62 POLY   1 POL  CG    CG    0.000  1.000
      63 POLY   1 POL  CG    CG    0.000  1.000
      64 POLY   1 POL  CG    CG    0.000  1.000
      65 POLY   1 POL  CG    CG    0.000  1.000
      66 POLY   1 POL  CG    CG    0.000  1.000
      67 POLY   1 POL  CG    CG    0.000  1.000
      68 POLY   1 POL  CG    CG    0.000  1.000
      69 POLY   1 POL  CG    CG    0.000  1.000
      70 POLY   1 POL  CG    CG    0.000  1.000
      71 POLY   1 POL  CG    CG    0.000  1.000
      72 POLY   1 POL  CG    CG    0.000  1.000
      73 POLY   1 POL  CG    CG    0.000  1.000
      74 POLY   1 POL  CG    CG    0.000  1.000
      75 POLY   1 POL  CG    CG    0.000  1.000
      76 POLY   1 POL  CG    CG    0.000  1.000
      77 POLY   1 POL  CG    CG    0.000  1.000
      78 POLY   1 POL  CG    CG    0.000  1.000
      79 POLY   1 POL  CG    CG    0.000  1.000
      80 POLY   1 POL  CG    CG    0.000  1.000
      81 POLY   1 POL  CG    CG    0.000  1.000
      82 POLY   1 POL  CG    CG    0.000  1.000
      83 POLY   1 POL  CG    CG    0.000  1.000
      84 POLY   1 POL  CG    CG    0.000  1.000
      85 POLY   1 POL  CG    CG    0.000  1.000
      86 POLY   1 POL  CG    CG    0.000  1.000
      87 POLY   1 POL  CG    CG    0.000  1.000
      88 POLY   1 POL  CG    CG    0.000  1.000
      89 POLY   1 POL  CG    CG    0.000  1.000
      90 POLY   1 POL  CG    CG    0.000  1.000
      91 POLY   1 POL  CG    CG    0.000  1.000
      92 POLY   1 POL  CG    CG    0.000  1.000
      93 POLY   1 POL  CG    CG    0.000  1.000
      94 POLY   1 POL  CG    CG    0.000  1.000
      95 POLY   1 POL  CG    CG    0.000  1.000
      96 POLY   1 POL  CG    CG    0.000  1.000
      97 POLY   1 POL  CG    CG    0.000  1.000
      98 POLY   1 POL  CG    CG    0.000  1.000
      99 POLY   1 POL  CG    CG    0.000  1.000
     100 POLY   1 POL  CG    CG    0.000  1.000
     101 POLY   1 POL  CG    CG    0.000  1.000
     102 POLY   1 POL  CG    CG    0.000  1.000
     103 POLY   1 POL  CG    CG    0.000  1.000
     104 POLY   1 POL  CG    CG    0.000  1.000
     105 POLY   1 POL  CG    CG    0.000  1.000
     106 POLY   1 POL  CG    CG    0.000  1.000
     107 POLY   1 POL  CG    CG    0.000  1.000
     108 POLY   1 POL  CG    CG    0.000  1.000
     109 POLY   1 POL  CG    CG    0.000  1.000
     110 POLY   1 POL  CG    CG    0.000  1.000
     111 POLY   1 POL  CG    CG    0.000  1.000
     112 POLY   1 POL  CG    CG    0.000  1.000
     113 POLY   1 POL  CG    CG    0.000  1.000
     114 POLY   1 POL  CG    CG    0.000  1.000
     115 POLY   1 POL  CG    CG    0.000  1.000
     116 POLY   1 POL  CG    CG    0.000  1.000
     117 POLY   1 POL  CG    CG    0.000  1.000
     118 POLY   1 POL  CG    CG    0.000  1.000
     119 POLY   1 POL  CG    CG    0.000  1.000
     120 POLY   1 POL  CG    CG    0.000  1.000
     121 POLY   1 POL  CG    CG    0.000  1.000
     122 POLY   1 POL  CG    CG    0.000  1.000
     123 POLY   1 POL  CG    CG    0.000  1.000
     124 POLY   1 POL  CG    CG    0.000  1.000
     125 POLY   1 POL  CG    CG    0.000  1.000
     126 POLY   1 POL  CG    CG    0.000  1.000
     127 POLY   1 POL  CG    CG    0.000  1.000
     128 POLY   1 POL  CG    CG    0.000  1.000
     129 POLY   1 POL  CG    CG    0.000  1.000
     130 POLY   1 POL  CG    CG    0.000  1.000
     131 POLY   1 POL  CG    CG    0.000  1.000
     132 POLY   1 POL  CG    CG    0.000  1.000
     133 POLY   1 POL  CG    CG    0.000  1.000
     134 POLY   1 POL  CG    CG    0.000  1.000
     135 POLY   1 POL  CG    CG    0.000  1.000
     136 POLY   1 POL  CG    CG    0.000  1.000
     137 POLY   1 POL  CG    CG    0.000  1.000
     138 POLY   1 POL  CG    CG    0.000  1.000
     139 POLY   1 POL  CG    CG    0.000  1.000
     140 POLY   1 POL  CG    CG    0.000  1.000
     141 POLY   1 POL  CG    CG    0.000  1.000
     142 POLY   1 POL  CG    CG    0.000  1.000
     143 POLY   1 POL  CG    CG    0.000  1.000
     144 POLY   1 POL  CG    CG    0.000  1.000
     145 POLY   1 POL  CG    CG    0.000  1.000
     146 POLY   1 POL  CG    CG    0.000  1.000
     147 POLY   1 POL  CG    CG    0.000  1.000
     148 POLY   1 POL  CG    CG    0.000  1.000
     149 POLY   1 POL  CG    CG    0.000  1.000
     150 POLY   1 POL  CG    CG    0.000  1.000
     151 POLY   1 POL  CG    CG    0.000  1.000
     152 POLY   1 POL  CG    CG    0.000  1.000
     153 POLY   1 POL  CG    CG    0.000  1.000
     154 POLY   1 POL  CG    CG    0.000  1.000
     155 POLY   1 POL  CG    CG    0.000  1.000
     156 POLY   1 POL  CG    CG    0.000  1.000
     157 POLY   1 POL  CG    CG    0.000  1.000
     158 POLY   1 POL  CG    CG    0.000  1.000
     159 POLY   1 POL  CG    CG    0.000  1.000
     160 POLY   1 POL  CG    CG    0.000  1.000
     161 POLY   1 POL  CG    CG    0.000  1.000
     162 POLY   1 POL  CG    CG    0.000  1.000
     163 POLY   1 POL  CG    CG    0.000  1.000
     164 POLY   1 POL  CG    CG    0.000  1.000
     165 POLY   1 POL  CG    CG    0.000  1.000
     166 POLY   1 POL  CG    CG    0.000  1.000
     167 POLY   1 POL  CG    CG    0.000  1.000
     168 POLY   1 POL  CG    CG    0.000  1.000
     169 POLY   1 POL  CG    CG    0.000  1.000
     170 POLY   1 POL  CG    CG    0.000  1.000
     171 POLY   1 POL  CG    CG    0.000  1.000
     172 POLY   1 POL  CG    CG    0.000  1.000
     173 POLY   1 POL  CG    CG    0.000  1.000
     174 POLY   1 POL  CG    CG    0.000  1.000
     175 POLY   1 POL  CG    CG    0.000  1.000
     176 POLY   1 POL  CG    CG    0.000  1.000
     177 POLY   1 POL  CG    CG    0.000  1.000
     178 POLY   1 POL  CG    CG    0.000  1.000
     179 POLY   1 POL  CG    CG    0.000  1.000
     180 POLY   1 POL  CG    CG    0.000  1.000
     181 POLY   1 POL  CG    CG    0.000  1.000
     182 POLY   1 POL  CG    CG    0.000  1.000
     183 POLY   1 POL  CG    CG    0.000  1.000
     184 POLY   1 POL  CG    CG    0.000  1.000
     185 POLY   1 POL  CG    CG    0.000  1.000
     186 POLY   1 POL  CG    CG    0.000  1.000
     187 POLY   1 POL  CG    CG    0.000  1.000
     188 POLY   1 POL  CG    CG    0.000  1.000
     189 POLY   1 POL  CG    CG    0.000  1.000
     190 POLY   1 POL  CG    CG    0.000  1.000
     191 POLY   1 POL  CG    CG    0.000  1.000
     192 POLY   1 POL  CG    CG    0.000  1.000
     193 POLY   1 POL  CG    CG    0.000  1.000
     194 POLY   1 POL  CG    CG    0.000  1.000
     195 POLY   1 POL  CG    CG    0.000  1.000
     196 POLY   1 POL  CG    CG    0.000  1.000
     197 POLY   1 POL  CG    CG    0.000  1.000
     198 POLY   1 POL  CG    CG    0.000  1.000
     199 POLY   1 POL  CG    CG    0.000  1.000
     200 POLY   1 POL  CG    CG    0.000  1.000
     201 POLY   1 POL  CG    CG    0.000  1.000
     202 POLY   1 POL  CG    CG    0.000  1.000
     203 POLY   1 POL  CG    CG    0.000  1.000
     204 POLY   1 POL  CG    CG    0.000  1.000
     205 POLY   1 POL  CG    CG    0.000  1.000
     206 POLY   1 POL  CG    CG    0.000  1.000
     207 POLY   1 POL  CG    CG    0.000  1.000
     208 POLY   1 POL  CG    CG    0.000  1.000
     209 POLY   1 POL  CG    CG    0.000  1.000
     210 POLY   1 POL  CG    CG    0.000  1.000
     211 POLY   1 POL  CG    CG    0.000  1.000
     212 POLY   1 POL  CG    CG    0.000  1.000
     213 POLY   1 POL  CG    CG    0.000  1.000
     214 POLY   1 POL  CG    CG    0.000  1.000
     215 POLY   1 POL  CG    CG    0.000  1.000
     216 POLY   1 POL  CG    CG    0.000  1.000
     217 POLY   1 POL  CG    CG    0.000  1.000
     218 POLY   1 POL  CG    CG    0.000  1.000
     219 POLY   1 POL  CG    CG    0.000  1.000
     220 POLY   1 POL  CG    CG    0.000  1.000
     221 POLY   1 POL  CG    CG    0.000  1.000
     222 POLY   1 POL  CG    CG    0.000  1.000
     223 POLY   1 POL  CG    CG    0.000  1.000
     224 POLY   1 POL  CG    CG    0.000  1.000
     225 POLY   1 POL  CG    CG    0.000  1.000
     226 POLY   1 POL  CG    CG    0.000  1.000
     227 POLY   1 POL  CG    CG    0.000  1.000
     228 POLY   1 POL  CG    CG    0.000  1.000
     229 POLY   1 POL  CG    CG    0.000  1.000
     230 POLY   1 POL  CG    CG    0.000  1.000
     231 POLY   1 POL  CG    CG    0.000  1.000
     232 POLY   1 POL  CG    CG    0.000  1.000
     233 POLY   1 POL  CG    CG    0.000  1.000
     234 POLY   1 POL  CG    CG    0.000  1.000
     235 POLY   1 POL  CG    CG    0.000  1.000
     236 POLY   1 POL  CG    CG    0.000  1.000
     237 POLY   1 POL  CG    CG    0.000  1.000
     238 POLY   1 POL  CG    CG    0.000  1.000
     239 POLY   1 POL  CG    CG    0.000  1.000
     240 POLY   1 POL  CG    CG    0.000  1.000
     241 POLY   1 POL  CG    CG    0.000  1.000
     242 POLY   1 POL  CG    CG    0.000  1.000
     243 POLY   1 POL  CG    CG    0.000  1.000
     244 POLY   1 POL  CG    CG    0.000  1.000
     245 POLY   1 POL  CG    CG    0.000  1.000
     246 POLY   1 POL  CG    CG    0.000  1.000
     247 POLY   1 POL  CG    CG    0.000  1.000
     248 POLY   1 POL  CG    CG    0.000  1.000
     249 POLY   1 POL  CG    CG    0.000  1.000
     250 POLY   1 POL  CG    CG    0.000  1.000
     251 POLY   1 POL  CG    CG    0.000  1.000
     252 POLY   1 POL  CG    CG    0.000  1.000
     253 POLY   1 POL  CG    CG    0.000  1.000
     254 POLY   1 POL  CG    CG    0.000  1.000
     255 POLY   1 POL  CG    CG    0.000  1.000
     256 POLY   1 POL  CG    CG    0.000  1.000
     257 POLY   1 POL  CG    CG    0.000  1.000
     258 POLY   1 POL  CG    CG    0.000  1.000
     259 POLY   1 POL  CG    CG    0.000  1.000
     260 POLY   1 POL  CG    CG    0.000  1.000
     261 POLY   1 POL  CG    CG    0.000  1.000
     262 POLY   1 POL  CG    CG    0.000  1.000
     263 POLY   1 POL  CG    CG    0.000  1.000
     264 POLY   1 POL  CG    CG    0.000  1.000
     265 POLY   1 POL  CG    CG    0.000  1.000
     266 POLY   1 POL  CG    CG    0.000  1.000
     267 POLY   1 POL  CG    CG    0.000  1.000
     268 POLY   1 POL  CG    CG    0.000  1.000
     269 POLY   1 POL  CG    CG    0.000  1.000
     270 POLY   1 POL  CG    CG    0.000  1.000
     271 POLY   1 POL  CG    CG    0.000  1.000
     272 POLY   1 POL  CG    CG    0.000  1.000
     273 POLY   1 POL  CG    CG    0.000  1.000
     274 POLY   1 POL  CG    CG    0.000  1.000
     275 POLY   1 POL  CG    CG    0.000  1.000
     276 POLY   1 POL  CG    CG    0.000  1.000
     277 POLY   1 POL  CG    CG    0.000  1.000
     278 POLY   1 POL  CG    CG    0.000  1.000
     279 POLY   1 POL  CG    CG    0.000  1.000
     280 POLY   1 POL  CG    CG    0.000  1.000
     281 POLY   1 POL  CG    CG    0.000  1.000
     282 POLY   1 POL  CG    CG    0.000  1.000
     283 POLY   1 POL  CG    CG    0.000  1.000
     284 POLY   1 POL  CG    CG    0.000  1.000
     285 POLY   1 POL  CG    CG    0.000  1.000
     286 POLY   1 POL  CG    CG    0.000  1.000
     287 POLY   1 POL  CG    CG    0.000  1.000
     288 POLY   1 POL  CG    CG    0.000  1.000
     289 POLY   1 POL  CG    CG    0.000  1.000
     290 POLY   1 POL  CG    CG    0.000  1.000
     291 POLY   1 POL  CG    CG    0.000  1.000
     292 POLY   1 POL  CG    CG    0.000  1.000
     293 POLY   1 POL  CG    CG    0.000  1.000
     294 POLY   1 POL  CG    CG    0.000  1.000
     295 POLY   1 POL  CG    CG    0.000  1.000
     296 POLY   1 POL  CG    CG    0.000  1.000
     297 POLY   1 POL  CG    CG    0.000  1.000
     298 POLY   1 POL  CG    CG    0.000  1.000
     299 POLY   1 POL  CG    CG    0.000  1.000
     300 POLY   1 POL  CG    CG    0.000  1.000
     301 POLY   1 POL  CG    CG    0.000  1.000
     302 POLY   1 POL  CG    CG    0.000  1.000
     303 POLY   1 POL  CG    CG    0.000  1.000
     304 POLY   1 POL  CG    CG    0.000  1.000
     305 POLY   1 POL  CG    CG    0.000  1.000
     306 POLY   1 POL  CG    CG    0.000  1.000
     307 POLY   1 POL  CG    CG    0.000  1.000
     308 POLY   1 POL  CG    CG    0.000  1.000
     309 POLY   1 POL  CG    CG    0.000  1.000
     310 POLY   1 POL  CG    CG    0.000  1.000
     311 POLY   1 POL  CG    CG    0.000  1.000
     312 POLY   1 POL  CG    CG    0.000  1.000
     313 POLY   1 POL  CG    CG    0.000  1.000
     314 POLY   1 POL  CG    CG    0.000  1.000
     315 POLY   1 POL  CG    CG    0.000  1.000
     316 POLY   1 POL  CG    CG    0.000  1.000
     317 POLY   1 POL  CG    CG    0.000  1.000
     318 POLY   1 POL  CG    CG    0.000  1.000
     319 POLY   1 POL  CG    CG    0.000  1.000
     320 POLY   1 POL  CG    CG    0.000  1.000
     321 POLY   1 POL  CG    CG    0.000  1.000
     322 POLY   1 POL  CG    CG    0.000  1.000
     323 POLY   1 POL  CG    CG    0.000  1.000
     324 POLY   1 POL  CG    CG    0.000  1.000
     325 POLY   1 POL  CG    CG    0.000  1.000
     326 POLY   1 POL  CG    CG    0.000  1.000
     327 POLY   1 POL  CG    CG    0.000  1.000
     328 POLY   1 POL  CG    CG    0.000  1.000
     329 POLY   1 POL  CG    CG    0.000  1.000
     330 POLY   1 POL  CG    CG    0.000  1.000
     331 POLY   1 POL  CG    CG    0.000  1.000
     332 POLY   1 POL  CG    CG    0.000  1.000
     333 POLY   1 POL  CG    CG    0.000  1.000
     334 POLY   1 POL  CG    CG    0.000  1.000
     335 POLY   1 POL  CG    CG    0.000  1.000
     336 POLY   1 POL  CG    CG    0.000  1.000
     337 POLY   1 POL  CG    CG    0.000  1.000
     338 POLY   1 POL  CG    CG    0.000  1.000
     339 POLY   1 POL  CG    CG    0.000  1.000
     340 POLY   1 POL  CG    CG    0.000  1.000
     341 POLY   1 POL  CG    CG    0.000  1.000
     342 POLY   1 POL  CG    CG    0.000  1.000
     343 POLY   1 POL  CG    CG    0.000  1.000
     344 POLY   1 POL  CG    CG    0.000  1.000
     345 POLY   1 POL  CG    CG    0.000  1.000
     346 POLY   1 POL  CG    CG    0.000  1.000
     347 POLY   1 POL  CG    CG    0.000  1.000
     348 POLY   1 POL  CG    CG    0.000  1.000
     349 POLY   1 POL  CG    CG    0.000  1.000
     350 POLY   1 POL  CG    CG    0.000  1.000
     351 POLY   1 POL  CG    CG    0.000  1.000
     352 POLY   1 POL  CG    CG    0.000  1.000
     353 POLY   1 POL  CG    CG    0.000  1.000
     354 POLY   1 POL  CG    CG    0.000  1.000
     355 POLY   1 POL  CG    CG    0.000  1.000
     356 POLY   1 POL  CG    CG    0.000  1.000
     357 POLY   1 POL  CG    CG    0.000  1.000
     358 POLY   1 POL  CG    CG    0.000  1.000
     359 POLY   1 POL  CG    CG    0.000  1.000
     360 POLY   1 POL  CG    CG    0.000  1.000
     361 POLY   1 POL  CG    CG    0.000  1.000
     362 POLY   1 POL  CG    CG    0.000  1.000
     363 POLY   1 POL  CG    CG    0.000  1.000
     364 POLY   1 POL  CG    CG    0.000  1.000
     365 POLY   1 POL  CG    CG    0.000  1.000
     366 POLY   1 POL  CG    CG    0.000  1.000
     367 POLY   1 POL  CG    CG    0.000  1.000
     368 POLY   1 POL  CG    CG    0.000  1.000
     369 POLY   1 POL  CG    CG    0.000  1.000
     370 POLY   1 POL  CG    CG    0.000  1.000
     371 POLY   1 POL  CG    CG    0.000  1.000
     372 POLY   1 POL  CG    CG    0.000  1.000
     373 POLY   1 POL  CG    CG    0.000  1.000
     374 POLY   1 POL  CG    CG    0.000  1.000
     375 POLY   1 POL  CG    CG    0.000  1.000
     376 POLY   1 POL  CG    CG    0.000  1.000
     377 POLY   1 POL  CG    CG    0.000  1.000
     378 POLY   1 POL  CG    CG    0.000  1.000
     379 POLY   1 POL  CG    CG    0.000  1.000
     380 POLY   1 POL  CG    CG    0.000  1.000
     381 POLY   1 POL  CG    CG    0.000  1.000
     382 POLY   1 POL  CG    CG    0.000  1.000
     383 POLY   1 POL  CG    CG    0.000  1.000
     384 POLY   1 POL  CG    CG    0.000  1.000
     385 POLY   1 POL  CG    CG    0.000  1.000
     386 POLY   1 POL  CG    CG    0.000  1.000
     387 POLY   1 POL  CG    CG    0.000  1.000
     388 POLY   1 POL  CG    CG    0.000  1.000
     389 POLY   1 POL  CG    CG    0.000  1.000
     390 POLY   1 POL  CG    CG    0.000  1.000
     391 POLY   1 POL  CG    CG    0.000  1.000
     392 POLY   1 POL  CG    CG    0.000  1.000
     393 POLY   1 POL  CG    CG    0.000  1.000
     394 POLY   1 POL  CG    CG    0.000  1.000
     395 POLY   1 POL  CG    CG    0.000  1.000
     396 POLY   1 POL  CG    CG    0.000  1.000
     397 POLY   1 POL  CG    CG    0.000  1.000
     398 POLY   1 POL  CG    CG    0.000  1.000
     399 POLY   1 POL  CG    CG    0.000  1.000
     400 POLY   1 POL  CG    CG    0.000  1.000
     401 POLY   1 POL  CG    CG    0.000  1.000
     402 POLY   1 POL  CG    CG    0.000  1.000
     403 POLY   1 POL  CG    CG    0.000  1.000
     404 POLY   1 POL  CG    CG    0.000  1.000
     405 POLY   1 POL  CG    CG    0.000  1.000
     406 POLY   1 POL  CG    CG    0.000  1.000
     407 POLY   1 POL  CG    CG    0.000  1.000
     408 POLY   1 POL  CG    CG    0.000  1.000
     409 POLY   1 POL  CG    CG    0.000  1.000
     410 POLY   1 POL  CG    CG    0.000  1.000
     411 POLY   1 POL  CG    CG    0.000  1.000
     412 POLY   1 POL  CG    CG    0.000  1.000
     413 POLY   1 POL  CG    CG    0.000  1.000
     414 POLY   1 POL  CG    CG    0.000  1.000
     415 POLY   1 POL  CG    CG    0.000  1.000
     416 POLY   1 POL  CG    CG    0.000  1.000
     417 POLY   1 POL  CG    CG    0.000  1.000
     418 POLY   1 POL  CG    CG    0.000  1.000
     419 POLY   1 POL  CG    CG    0.000  1.000
     420 POLY   1 POL  CG    CG    0.000  1.000
     421 POLY   1 POL  CG    CG    0.000  1.000
     422 POLY   1 POL  CG    CG    0.000  1.000
     423 POLY   1 POL  CG    CG    0.000  1.000
     424 POLY   1 POL  CG    CG    0.000  1.000
     425 POLY   1 POL  CG    CG    0.000  1.000
     426 POLY   1 POL  CG    CG    0.000  1.000
     427 POLY   1 POL  CG    CG    0.000  1.000
     428 POLY   1 POL  CG    CG    0.000  1.000
     429 POLY   1 POL  CG    CG    0.000  1.000
     430 POLY   1 POL  CG    CG    0.000  1.000
     431 POLY   1 POL  CG    CG    0.000  1.000
     432 POLY   1 POL  CG    CG    0.000  1.000
     433 POLY   1 POL  CG    CG    0.000  1.000
     434 POLY   1 POL  CG    CG    0.000  1.000
     435 POLY   1 POL  CG    CG    0.000  1.000
     436 POLY   1 POL  CG    CG    0.000  1.000
     437 POLY   1 POL  CG    CG    0.000  1.000
     438 POLY   1 POL  CG    CG    0.000  1.000
     439 POLY   1 POL  CG    CG    0.000  1.000
     440 POLY   1 POL  CG    CG    0.000  1.000
     441 POLY   1 POL  CG    CG    0.000  1.000
     442 POLY   1 POL  CG    CG    0.000  1.000
     443 POLY   1 POL  CG    CG    0.000  1.000
     444 POLY   1 POL  CG    CG    0.000  1.000
     445 POLY   1 POL  CG    CG    0.000  1.000
     446 POLY   1 POL  CG    CG    0.000  1.000
     447 POLY   1 POL  CG    CG    0.000  1.000
     448 POLY   1 POL  CG    CG    0.000  1.000
     449 POLY   1 POL  CG    CG    0.000  1.000
     450 POLY   1 POL  CG    CG    0.000  1.000
     451 POLY   1 POL  CG    CG    0.000  1.000
     452 POLY   1 POL  CG    CG    0.000  1.000
     453 POLY   1 POL  CG    CG    0.000  1.000
     454 POLY   1 POL  CG    CG    0.000  1.000
     455 POLY   1 POL  CG    CG    0.000  1.000
     456 POLY   1 POL  CG    CG    0.000  1.000
     457 POLY   1 POL  CG    CG    0.000  1.000
     458 POLY   1 POL  CG    CG    0.000  1.000
     459 POLY   1 POL  CG    CG    0.000  1.000
     460 POLY   1 POL  CG    CG    0.000  1.000
     461 POLY   1 POL  CG    CG    0.000  1.000
     462 POLY   1 POL  CG    CG    0.000  1.000
     463 POLY   1 POL  CG    CG    0.000  1.000
     464 POLY   1 POL  CG    CG    0.000  1.000
     465 POLY   1 POL  CG    CG    0.000  1.000
     466 POLY   1 POL  CG    CG    0.000  1.000
     467 POLY   1 POL  CG    CG    0.000  1.000
     468 POLY   1 POL  CG    CG    0.000  1.000
     469 POLY   1 POL  CG    CG    0.000  1.000
     470 POLY   1 POL  CG    CG    0.000  1.000
     471 POLY   1 POL  CG    CG    0.000  1.000
     472 POLY   1 POL  CG    CG    0.000  1.000
     473 POLY   1 POL  CG    CG    0.000  1.000
     474 POLY   1 POL  CG    CG    0.000  1.000
     475 POLY   1 POL  CG    CG    0.000  1.000
     476 POLY   1 POL  CG    CG    0.000  1.000
     477 POLY   1 POL  CG    CG    0.000  1.000
     478 POLY   1 POL  CG    CG    0.000  1.000
     479 POLY   1 POL  CG    CG    0.000  1.000
     480 POLY   1 POL  CG    CG    0.000  1.000
     481 POLY   1 POL  CG    CG    0.000  1.000
     482 POLY   1 POL  CG    CG    0.000  1.000
     483 POLY   1 POL  CG    CG    0.000  1.000
     484 POLY   1 POL  CG    CG    0.000  1.000
     485 POLY   1 POL  CG    CG    0.000  1.000
     486 POLY   1 POL  CG    CG    0.000  1.000
     487 POLY   1 POL  CG    CG    0.000  1.000
     488 POLY   1 POL  CG    CG    0.000  1.000
     489 POLY   1 POL  CG    CG    0.000  1.000
     490 POLY   1 POL  CG    CG    0.000  1.000
     491 POLY   1 POL  CG    CG    0.000  1.000
     492 POLY   1 POL  CG    CG    0.000  1.000
     493 POLY   1 POL  CG    CG    0.000  1.000
     494 POLY   1 POL  CG    CG    0.000  1.000
     495 POLY   1 POL  CG    CG    0.000  1.000
     496 POLY   1 POL  CG    CG    0.000  1.000
     497 POLY   1 POL  CG    CG    0.000  1.000
     498 POLY   1 POL  CG    CG    0.000  1.000
     499 POLY   1 POL  CG    CG    0.000  1.000
     500 POLY   1 POL  CG    CG    0.000  1.000
     501 POLY   1 POL  CG    CG    0.000  1.000
     502 POLY   1 POL  CG    CG    0.000  1.000
     503 POLY   1 POL  CG    CG    0.000  1.000
     504 POLY   1 POL  CG    CG    0.000  1.000
     505 POLY   1 POL  CG    CG    0.000  1.000
     506 POLY   1 POL  CG    CG    0.000  1.000
     507 POLY   1 POL  CG    CG    0.000  1.000
     508 POLY   1 POL  CG    CG    0.000  1.000
     509 POLY   1 POL  CG    CG    0.000  1.000
     510 POLY   1 POL  CG    CG    0.000  1.000
     511 POLY   1 POL  CG    CG    0.000  1.000
     512 POLY   1 POL  CG    CG    0.000  1.000
     513 POLY   1 POL  CG    CG    0.000  1.000
     514 POLY   1 POL  CG    CG    0.000  1.000
     515 POLY   1 POL  CG    CG    0.000  1.000
     516 POLY   1 POL  CG    CG    0.000  1.000
     517 POLY   1 POL  CG    CG    0.000  1.000
     518 POLY   1 POL  CG    CG    0.000  1.000
     519 POLY   1 POL  CG    CG    0.000  1.000
     520 POLY   1 POL  CG    CG    0.000  1.000
     521 POLY   1 POL  CG    CG    0.000  1.000
     522 POLY   1 POL  CG    CG    0.000  1.000
     523 POLY   1 POL  CG    CG    0.000  1.000
     524 POLY   1 POL  CG    CG    0.000  1.000
     525 POLY   1 POL  CG    CG    0.000  1.000
     526 POLY   1 POL  CG    CG    0.000  1.000
     527 POLY   1 POL  CG    CG    0.000  1.000
     528 POLY   1 POL  CG    CG    0.000  1.000
     529 POLY   1 POL  CG    CG    0.000  1.000
     530 POLY   1 POL  CG    CG    0.000  1.000
     531 POLY   1 POL  CG    CG    0.000  1.000
     532 POLY   1 POL  CG    CG    0.000  1.000
     533 POLY   1 POL  CG    CG    0.000  1.000
     534 POLY   1 POL  CG    CG    0.000  1.000
     535 POLY   1 POL  CG    CG    0.000  1.000
     536 POLY   1 POL  CG    CG    0.000  1.000
     537 POLY   1 POL  CG    CG    0.000  1.000
     538 POLY   1 POL  CG    CG    0.000  1.000
     539 POLY   1 POL  CG    CG    0.000  1.000
     540 POLY   1 POL  CG    CG    0.000  1.000
     541 POLY   1 POL  CG    CG    0.000  1.000
     542 POLY   1 POL  CG    CG    0.000  1.000
     543 POLY   1 POL  CG    CG    0.000  1.000
     544 POLY   1 POL  CG    CG    0.000  1.000
     545 POLY   1 POL  CG    CG    0.000  1.000
     546 POLY   1 POL  CG    CG    0.000  1.000
     547 POLY   1 POL  CG    CG    0.000  1.000
     548 POLY   1 POL  CG    CG    0.000  1.000
     549 POLY   1 POL  CG    CG    0.000  1.000
     550 POLY   1 POL  CG    CG    0.000  1.000
     551 POLY   1 POL  CG    CG    0.000  1.000
     552 POLY   1 POL  CG    CG    0.000  1.000
     553 POLY   1 POL  CG    CG    0.000  1.000
     554 POLY   1 POL  CG    CG    0.000  1.000
     555 POLY   1 POL  CG    CG    0.000  1.000
     556 POLY   1 POL  CG    CG    0.000  1.000
     557 POLY   1 POL  CG    CG    0.000  1.000
     558 POLY   1 POL  CG    CG    0.000  1.000
     559 POLY   1 POL  CG    CG    0.000  1.000
     560 POLY   1 POL  CG    CG    0.000  1.000
     561 POLY   1 POL  CG    CG    0.000  1.000
     562 POLY   1 POL  CG    CG    0.000  1.000
     563 POLY   1 POL  CG    CG    0.000  1.000
     564 POLY   1 POL  CG    CG    0.000  1.000
     565 POLY   1 POL  CG    CG    0.000  1.000
     566 POLY   1 POL  CG    CG    0.000  1.000
     567 POLY   1 POL  CG    CG    0.000  1.000
     568 POLY   1 POL  CG    CG    0.000  1.000
     569 POLY   1 POL  CG    CG    0.000  1.000
     570 POLY   1 POL  CG    CG    0.000  1.000
     571 POLY   1 POL  CG    CG    0.000  1.000
     572 POLY   1 POL  CG    CG    0.000  1.000
     573 POLY   1 POL  CG    CG    0.000  1.000
     574 POLY   1 POL  CG    CG    0.000  1.000
     575 POLY   1 POL  CG    CG    0.000  1.000
     576 POLY   1 POL  CG    CG    0.000  1.000
     577 POLY   1 POL  CG    CG    0.000  1.000
     578 POLY   1 POL  CG    CG    0.000  1.000
     579 POLY   1 POL  CG    CG    0.000  1.000
     580 POLY   1 POL  CG    CG    0.000  1.000
     581 POLY   1 POL  CG    CG    0.000  1.000
     582 POLY   1 POL  CG    CG    0.000  1.000
     583 POLY   1 POL  CG    CG    0.000  1.000
     584 POLY   1 POL  CG    CG    0.000  1.000
     585 POLY   1 POL  CG    CG    0.000  1.000
     586 POLY   1 POL  CG    CG    0.000  1.000
     587 POLY   1 POL  CG    CG    0.000  1.000
     588 POLY   1 POL  CG    CG    0.000  1.000
     589 POLY   1 POL  CG    CG    0.000  1.000
     590 POLY   1 POL  CG    CG    0.000  1.000
     591 POLY   1 POL  CG    CG    0.000  1.000
     592 POLY   1 POL  CG    CG    0.000  1.000
     593 POLY   1 POL  CG    CG    0.000  1.000
     594 POLY   1 POL  CG    CG    0.000  1.000
     595 POLY   1 POL  CG    CG    0.000  1.000
     596 POLY   1 POL  CG    CG    0.000  1.000
     597 POLY   1 POL  CG    CG    0.000  1.000
     598 POLY   1 POL  CG    CG    0.000  1.000
     599 POLY   1 POL  CG    CG    0.000  1.000
     600 POLY   1 POL  CG    CG    0.000  1.000
     601 POLY   1 POL  CG    CG    0.000  1.000
     602 POLY   1 POL  CG    CG    0.000  1.000
     603 POLY   1 POL  CG    CG    0.000  1.000
     604 POLY   1 POL  CG    CG    0.000  1.000
     605 POLY   1 POL  CG    CG    0.000  1.000
     606 POLY   1 POL  CG    CG    0.000  1.000
     607 POLY   1 POL  CG    CG    0.000  1.000
     608 POLY   1 POL  CG    CG    0.000  1.000
     609 POLY   1 POL  CG    CG    0.000  1.000
     610 POLY   1 POL  CG    CG    0.000  1.000
     611 POLY   1 POL  CG    CG    0.000  1.000
     612 POLY   1 POL  CG    CG    0.000  1.000
     613 POLY   1 POL  CG    CG    0.000  1.000
     614 POLY   1 POL  CG    CG    0.000  1.000
     615 POLY   1 POL  CG    CG    0.000  1.000
     616 POLY   1 POL  CG    CG    0.000  1.000
     617 POLY   1 POL  CG    CG    0.000  1.000
     618 POLY   1 POL  CG    CG    0.000  1.000
     619 POLY   1 POL  CG    CG    0.000  1.000
     620 POLY   1 POL  CG    CG    0.000  1.000
     621 POLY   1 POL  CG    CG    0.000  1.000
     622 POLY   1 POL  CG    CG    0.000  1.000
     623 POLY   1 POL  CG    CG    0.000  1.000
     624 POLY   1 POL  CG    CG    0.000  1.000
     625 POLY   1 POL  CG    CG    0.000  1.000
     626 POLY   1 POL  CG    CG    0.000  1.000
     627 POLY   1 POL  CG    CG    0.000  1.000
     628 POLY   1 POL  CG    CG    0.000  1.000
     629 POLY   1 POL  CG    CG    0.000  1.000
     630 POLY   1 POL  CG    CG    0.000  1.000
     631 POLY   1 POL  CG    CG    0.000  1.000
     632 POLY   1 POL  CG    CG    0.000  1.000
     633 POLY   1 POL  CG    CG    0.000  1.000
     634 POLY   1 POL  CG    CG    0.000  1.000
     635 POLY   1 POL  CG    CG    0.000  1.000
     636 POLY   1 POL  CG    CG    0.000  1.000
     637 POLY   1 POL  CG    CG    0.000  1.000
     638 POLY   1 POL  CG    CG    0.000  1.000
     639 POLY   1 POL  CG    CG    0.000  1.000
     640 POLY   1 POL  CG    CG    0.000  1.000
     641 POLY   1 POL  CG    CG    0.000  1.000
     642 POLY   1 POL  CG    CG    0.000  1.000
     643 POLY   1 POL  CG    CG    0.000  1.000
     644 POLY   1 POL  CG    CG    0.000  1.000
     645 POLY   1 POL  CG    CG    0.000  1.000
     646 POLY   1 POL  CG    CG    0.000  1.000
     647 POLY   1 POL  CG    CG    0.000  1.000
     648 POLY   1 POL  CG    CG    0.000  1.000
     649 POLY   1 POL  CG    CG    0.000  1.000
     650 POLY   1 POL  CG    CG    0.000  1.000
     651 POLY   1 POL  CG    CG    0.000  1.000
     652 POLY   1 POL  CG    CG    0.000  1.000
     653 POLY   1 POL  CG    CG    0.000  1.000
     654 POLY   1 POL  CG    CG    0.000  1.000
     655 POLY   1 POL  CG    CG    0.000  1.000
     656 POLY   1 POL  CG    CG    0.000  1.000
     657 POLY   1 POL  CG    CG    0.000  1.000
     658 POLY   1 POL  CG    CG    0.000  1.000
     659 POLY   1 POL  CG    CG    0.000  1.000
     660 POLY   1 POL  CG    CG    0.000  1.000
     661 POLY   1 POL  CG    CG    0.000  1.000
     662 POLY   1 POL  CG    CG    0.000  1.000
     663 POLY   1 POL  CG    CG    0.000  1.000
     664 POLY   1 POL  CG    CG    0.000  1.000
     665 POLY   1 POL  CG    CG    0.000  1.000
     666 POLY   1 POL  CG    CG    0.000  1.000
     667 POLY   1 POL  CG    CG    0.000  1.000
     668 POLY   1 POL  CG    CG    0.000  1.000
     669 POLY   1 POL  CG    CG    0.000  1.000
     670 POLY   1 POL  CG    CG    0.000  1.000
     671 POLY   1 POL  CG    CG    0.000  1.000
     672 POLY   1 POL  CG    CG    0.000  1.000
     673 POLY   1 POL  CG    CG    0.000  1.000
     674 POLY   1 POL  CG    CG    0.000  1.000
     675 POLY   1 POL  CG    CG    0.000  1.000
     676 POLY   1 POL  CG    CG    0.000  1.000
     677 POLY   1 POL  CG    CG    0.000  1.000
     678 POLY   1 POL  CG    CG    0.000  1.000
     679 POLY   1 POL  CG    CG    0.000  1.000
     680 POLY   1 POL  CG    CG    0.000  1.000
     681 POLY   1 POL  CG    CG    0.000  1.000
     682 POLY   1 POL  CG    CG    0.000  1.000
     683 POLY   1 POL  CG    CG    0.000  1.000
     684 POLY   1 POL  CG    CG    0.000  1.000
     685 POLY   1 POL  CG    CG    0.000  1.000
     686 POLY   1 POL  CG    CG    0.000  1.000
     687 POLY   1 POL  CG    CG    0.000  1.000
     688 POLY   1 POL  CG    CG    0.000  1.000
     689 POLY   1 POL  CG    CG    0.000  1.000
     690 POLY   1 POL  CG    CG    0.000  1.000
     691 POLY   1 POL  CG    CG    0.000  1.000
     692 POLY   1 POL  CG    CG    0.000  1.000
     693 POLY   1 POL  CG    CG    0.000  1.000
     694 POLY   1 POL  CG    CG    0.000  1.000
     695 POLY   1 POL  CG    CG    0.000  1.000
     696 POLY   1 POL  CG    CG    0.000  1.000
     697 POLY   1 POL  CG    CG    0.000  1.000
     698 POLY   1 POL  CG    CG    0.000  1.000
     699 POLY   1 POL  CG    CG    0.000  1.000
     700 POLY   1 POL  CG    CG    0.000  1.000
     701 POLY   1 POL  CG    CG    0.000  1.000
     702 POLY   1 POL  CG    CG    0.000  1.000
     703 POLY   1 POL  CG    CG    0.000  1.000
     704 POLY   1 POL  CG    CG    0.000  1.000
     705 POLY   1 POL  CG    CG    0.000  1.000
     706 POLY   1 POL  CG    CG    0.000  1.000
     707 POLY   1 POL  CG    CG    0.000  1.000
     708 POLY   1 POL  CG    CG    0.000  1.000
     709 POLY   1 POL  CG    CG    0.000  1.000
     710 POLY   1 POL  CG    CG    0.000  1.000
     711 POLY   1 POL  CG    CG    0.000  1.000
     712 POLY   1 POL  CG    CG    0.000  1.000
     713 POLY   1 POL  CG    CG    0.000  1.000
     714 POLY   1 POL  CG    CG    0.000  1.000
     715 POLY   1 POL  CG    CG    0.000  1.000
     716 POLY   1 POL  CG    CG    0.000  1.000
     717 POLY   1 POL  CG    CG    0.000  1.000
     718 POLY   1 POL  CG    CG    0.000  1.000
     719 POLY   1 POL  CG    CG    0.000  1.000
     720 POLY   1 POL  CG    CG    0.000  1.000
     721 POLY   1 POL  CG    CG    0.000  1.000
     722 POLY   1 POL  CG    CG    0.000  1.000
     723 POLY   1 POL  CG    CG    0.000  1.000
     724 POLY   1 POL  CG    CG    0.000  1.000
     725 POLY   1 POL  CG    CG    0.000  1.000
     726 POLY   1 POL  CG    CG    0.000  1.000
     727 POLY   1 POL  CG    CG    0.000  1.000
     728 POLY   1 POL  CG    CG    0.000  1.000
     729 POLY   1 POL  CG    CG    0.000  1.000
     730 POLY   1 POL  CG    CG    0.000  1.000
     731 POLY   1 POL  CG    CG    0.000  1.000
     732 POLY   1 POL  CG    CG    0.000  1.000
     733 POLY   1 POL  CG    CG    0.000  1.000
     734 POLY   1 POL  CG    CG    0.000  1.000
     735 POLY   1 POL  CG    CG    0.000  1.000
     736 POLY   1 POL  CG    CG    0.000  1.000
     737 POLY   1 POL  CG    CG    0.000  1.000
     738 POLY   1 POL  CG    CG    0.000  1.000
     739 POLY   1 POL  CG    CG    0.000  1.000
     740 POLY   1 POL  CG    CG    0.000  1.000
     741 POLY   1 POL  CG    CG    0.000  1.000
     742 POLY   1 POL  CG    CG    0.000  1.000
     743 POLY   1 POL  CG    CG    0.000  1.000
     744 POLY   1 POL  CG    CG    0.000  1.000
     745 POLY   1 POL  CG    CG    0.000  1.000
     746 POLY   1 POL  CG    CG    0.000  1.000
     747 POLY   1 POL  CG    CG    0.000  1.000
     748 POLY   1 POL  CG    CG    0.000  1.000
     749 POLY   1 POL  CG    CG    0.000  1.000
     750 POLY   1 POL  CG    CG    0.000  1.000
     751 POLY   1 POL  CG    CG    0.000  1.000
     752 POLY   1 POL  CG    CG    0.000  1.000
     753 POLY   1 POL  CG    CG    0.000  1.000
     754 POLY   1 POL  CG    CG    0.000  1.000
     755 POLY   1 POL  CG    CG    0.000  1.000
     756 POLY   1 POL  CG    CG    0.000  1.000
     757 POLY   1 POL  CG    CG    0.000  1.000
     758 POLY   1 POL  CG    CG    0.000  1.000
     759 POLY   1 POL  CG    CG    0.000  1.000
     760 POLY   1 POL  CG    CG    0.000  1.000
     761 POLY   1 POL  CG    CG    0.000  1.000
     762 POLY   1 POL  CG    CG    0.000  1.000
     763 POLY   1 POL  CG    CG    0.000  1.000
     764 POLY   1 POL  CG    CG    0.000  1.000
     765 POLY   1 POL  CG    CG    0.000  1.000
     766 POLY   1 POL  CG    CG    0.000  1.000
     767 POLY   1 POL  CG    CG    0.000  1.000
     768 POLY   1 POL  CG    CG    0.000  1.000
     769 POLY   1 POL  CG    CG    0.000  1.000
     770 POLY   1 POL  CG    CG    0.000  1.000
     771 POLY   1 POL  CG    CG    0.000  1.000
     772 POLY   1 POL  CG    CG    0.000  1.000
     773 POLY   1 POL  CG    CG    0.000  1.000
     774 POLY   1 POL  CG    CG    0.000  1.000
     775 POLY   1 POL  CG    CG    0.000  1.000
     776 POLY   1 POL  CG    CG    0.000  1.000
     777 POLY   1 POL  CG    CG    0.000  1.000
     778 POLY   1 POL  CG    CG    0.000  1.000
     779 POLY   1 POL  CG    CG    0.000  1.000
     780 POLY   1 POL  CG    CG    0.000  1.000
     781 POLY   1 POL  CG    CG    0.000  1.000
     782 POLY   1 POL  CG    CG    0.000  1.000
     783 POLY   1 POL  CG    CG    0.000  1.000
     784 POLY   1 POL  CG    CG    0.000  1.000
     785 POLY   1 POL  CG    CG    0.000  1.000
     786 POLY   1 POL  CG    CG    0.000  1.000
     787 POLY   1 POL  CG    CG    0.000  1.000
     788 POLY   1 POL  CG    CG    0.000  1.000
     789 POLY   1 POL  CG    CG    0.000  1.000
     790 POLY   1 POL  CG    CG    0.000  1.000
     791 POLY   1 POL  CG    CG    0.000  1.000
     792 POLY   1 POL  CG    CG    0.000  1.000
     793 POLY   1 POL  CG    CG    0.000  1.000
     794 POLY   1 POL  CG    CG    0.000  1.000
     795 POLY   1 POL  CG    CG    0.000  1.000
     796 POLY   1 POL  CG    CG    0.000  1.000
     797 POLY   1 POL  CG    CG    0.000  1.000
     798 POLY   1 POL  CG    CG    0.000  1.000
     799 POLY   1 POL  CG    CG    0.000  1.000
     800 POLY   1 POL  CG    CG    0.000  1.000
     801 POLY   1 POL  CG    CG    0.000  1.000
     802 POLY   1 POL  CG    CG    0.000  1.000
     803 POLY   1 POL  CG    CG    0.000  1.000
     804 POLY   1 POL  CG    CG    0.000  1.000
     805 POLY   1 POL  CG    CG    0.000  1.000
     806 POLY   1 POL  CG    CG    0.000  1.000
     807 POLY   1 POL  CG    CG    0.000  1.000
     808 POLY   1 POL  CG    CG    0.000  1.000
     809 POLY   1 POL  CG    CG    0.000  1.000
     810 POLY   1 POL  CG    CG    0.000  1.000
     811 POLY   1 POL  CG    CG    0.000  1.000
     812 POLY   1 POL  CG    CG    0.000  1.000
     813 POLY   1 POL  CG    CG    0.000  1.000
     814 POLY   1 POL  CG    CG    0.000  1.000
     815 POLY   1 POL  CG    CG    0.000  1.000
     816 POLY   1 POL  CG    CG    0.000  1.000
     817 POLY   1 POL  CG    CG    0.000  1.000
     818 POLY   1 POL  CG    CG    0.000  1.000
     819 POLY   1 POL  CG    CG    0.000  1.000
     820 POLY   1 POL  CG    CG    0.000  1.000
     821 POLY   1 POL  CG    CG    0.000  1.000
     822 POLY   1 POL  CG    CG    0.000  1.000
     823 POLY   1 POL  CG    CG    0.000  1.000
     824 POLY   1 POL  CG    CG    0.000  1.000
     825 POLY   1 POL  CG    CG    0.000  1.000
     826 POLY   1 POL  CG    CG    0.000  1.000
     827 POLY   1 POL  CG    CG    0.000  1.000
     828 POLY   1 POL  CG    CG    0.000  1.000
     829 POLY   1 POL  CG    CG    0.000  1.000
     830 POLY   1 POL  CG    CG    0.000  1.000
     831 POLY   1 POL  CG    CG    0.000  1.000
     832 POLY   1 POL  CG    CG    0.000  1.000
     833 POLY   1 POL  CG    CG    0.000  1.000
     834 POLY   1 POL  CG    CG    0.000  1.000
     835 POLY   1 POL  CG    CG    0.000  1.000
     836 POLY   1 POL  CG    CG    0.000  1.000
     837 POLY   1 POL  CG    CG    0.000  1.000
     838 POLY   1 POL  CG    CG    0.000  1.000
     839 POLY   1 POL  CG    CG    0.000  1.000
     840 POLY   1 POL  CG    CG    0.000  1.000
     841 POLY   1 POL  CG    CG    0.000  1.000
     842 POLY   1 POL  CG    CG    0.000  1.000
     843 POLY   1 POL  CG    CG    0.000  1.000
     844 POLY   1 POL  CG    CG    0.000  1.000
     845 POLY   1 POL  CG    CG    0.000  1.000
     846 POLY   1 POL  CG    CG    0.000  1.000
     847 POLY   1 POL  CG    CG    0.000  1.000
     848 POLY   1 POL  CG    CG    0.000  1.000
     849 POLY   1 POL  CG    CG    0.000  1.000
     850 POLY   1 POL  CG    CG    0.000  1.000
     851 POLY   1 POL  CG    CG    0.000  1.000
     852 POLY   1 POL  CG    CG    0.000  1.000
     853 POLY   1 POL  CG    CG    0.000  1.000
     854 POLY   1 POL  CG    CG    0.000  1.000
     855 POLY   1 POL  CG    CG    0.000  1.000
     856 POLY   1 POL  CG    CG    0.000  1.000
     857 POLY   1 POL  CG    CG    0.000  1.000
     858 POLY   1 POL  CG    CG    0.000  1.000
     859 POLY   1 POL  CG    CG    0.000  1.000
     860 POLY   1 POL  CG    CG    0.000  1.000
     861 POLY   1 POL  CG    CG    0.000  1.000
     862 POLY   1 POL  CG    CG    0.000  1.000
     863 POLY   1 POL  CG    CG    0.000  1.000
     864 POLY   1 POL  CG    CG    0.000  1.000
     865 POLY   1 POL  CG    CG    0.000  1.000
     866 POLY   1 POL  CG    CG    0.000  1.000
     867 POLY   1 POL  CG    CG    0.000  1.000
     868 POLY   1 POL  CG    CG    0.000  1.000
     869 POLY   1 POL  CG    CG    0.000  1.000
     870 POLY   1 POL  CG    CG    0.000  1.000
     871 POLY   1 POL  CG    CG    0.000  1.000
     872 POLY   1 POL  CG    CG    0.000  1.000
     873 POLY   1 POL  CG    CG    0.000  1.000
     874 POLY   1 POL  CG    CG    0.000  1.000
     875 POLY   1 POL  CG    CG    0.000  1.000
     876 POLY   1 POL  CG    CG    0.000  1.000
     877 POLY   1 POL  CG    CG    0.000  1.000
     878 POLY   1 POL  CG    CG    0.000  1.000
     879 POLY   1 POL  CG    CG    0.000  1.000
     880 POLY   1 POL  CG    CG    0.000  1.000
     881 POLY   1 POL  CG    CG    0.000  1.000
     882 POLY   1 POL  CG    CG    0.000  1.000
     883 POLY   1 POL  CG    CG    0.000  1.000
     884 POLY   1 POL  CG    CG    0.000  1.000
     885 POLY   1 POL  CG    CG    0.000  1.000
     886 POLY   1 POL  CG    CG    0.000  1.000
     887 POLY   1 POL  CG    CG    0.000  1.000
     888 POLY   1 POL  CG    CG    0.000  1.000
     889 POLY   1 POL  CG    CG    0.000  1.000
     890 POLY   1 POL  CG    CG    0.000  1.000
     891 POLY   1 POL  CG    CG    0.000  1.000
     892 POLY   1 POL  CG    CG    0.000  1.000
     893 POLY   1 POL  CG    CG    0.000  1.000
     894 POLY   1 POL  CG    CG    0.000  1.000
     895 POLY   1 POL  CG    CG    0.000  1.000
     896 POLY   1 POL  CG    CG    0.000  1.000
     897 POLY   1 POL  CG    CG    0.000  1.000
     898 POLY   1 POL  CG    CG    0.000  1.000
     899 POLY   1 POL  CG    CG    0.000  1.000
     900 POLY   1 POL  CG    CG    0.000  1.000
     901 POLY   1 POL  CG    CG    0.000  1.000
     902 POLY   1 POL  CG    CG    0.000  1.000
     903 POLY   1 POL  CG    CG    0.000  1.000
     904 POLY   1 POL  CG    CG    0.000  1.000
     905 POLY   1 POL  CG    CG    0.000  1.000
     906 POLY   1 POL  CG    CG    0.000  1.000
     907 POLY   1 POL  CG    CG    0.000  1.000
     908 POLY   1 POL  CG    CG    0.000  1.000
     909 POLY   1 POL  CG    CG    0.000  1.000
     910 POLY   1 POL  CG    CG    0.000  1.000
     911 POLY   1 POL  CG    CG    0.000  1.000
     912 POLY   1 POL  CG    CG    0.000  1.000
     913 POLY   1 POL  CG    CG    0.000  1.000
     914 POLY   1 POL  CG    CG    0.000  1.000
     915 POLY   1 POL  CG    CG    0.000  1.000
     916 POLY   1 POL  CG    CG    0.000  1.000
     917 POLY   1 POL  CG    CG    0.000  1.000
     918 POLY   1 POL  CG    CG    0.000  1.000
     919 POLY   1 POL  CG    CG    0.000  1.000
     920 POLY   1 POL  CG    CG    0.000  1.000
     921 POLY   1 POL  CG    CG    0.000  1.000
     922 POLY   1 POL  CG    CG    0.000  1.000
     923 POLY   1 POL  CG    CG    0.000  1.000
     924 POLY   1 POL  CG    CG    0.000  1.000
     925 POLY   1 POL  CG    CG    0.000  1.000
     926 POLY   1 POL  CG    CG    0.000  1.000
     927 POLY   1 POL  CG    CG    0.000  1.000
     928 POLY   1 POL  CG    CG    0.000  1.000
     929 POLY   1 POL  CG    CG    0.000  1.000
     930 POLY   1 POL  CG    CG    0.000  1.000
     931 POLY   1 POL  CG    CG    0.000  1.000
     932 POLY   1 POL  CG    CG    0.000  1.000
     933 POLY   1 POL  CG    CG    0.000  1.000
     934 POLY   1 POL  CG    CG    0.000  1.000
     935 POLY   1 POL  CG    CG    0.000  1.000
     936 POLY   1 POL  CG    CG    0.000  1.000
     937 POLY   1 POL  CG    CG    0.000  1.000
     938 POLY   1 POL  CG    CG    0.000  1.000
     939 POLY   1 POL  CG    CG    0.000  1.000
     940 POLY   1 POL  CG    CG    0.000  1.000
     941 POLY   1 POL  CG    CG    0.000  1.000
     942 POLY   1 POL  CG    CG    0.000  1.000
     943 POLY   1 POL  CG    CG    0.000  1.000
     944 POLY   1 POL  CG    CG    0.000  1.000
     945 POLY   1 POL  CG    CG    0.000  1.000
     946 POLY   1 POL  CG    CG    0.000  1.000
     947 POLY   1 POL  CG    CG    0.000  1.000
     948 POLY   1 POL  CG    CG    0.000  1.000
     949 POLY   1 POL  CG    CG    0.000  1.000
     950 POLY   1 POL  CG    CG    0.000  1.000
     951 POLY   1 POL  CG    CG    0.000  1.000
     952 POLY   1 POL  CG    CG    0.000  1.000
     953 POLY   1 POL  CG    CG    0.000  1.000
     954 POLY   1 POL  CG    CG    0.000  1.000
     955 POLY   1 POL  CG    CG    0.000  1.000
     956 POLY   1 POL  CG    CG    0.000  1.000
     957 POLY   1 POL  CG    CG    0.000  1.000
     958 POLY   1 POL  CG    CG    0.000  1.000
     959 POLY   1 POL  CG    CG    0.000  1.000
     960 POLY   1 POL  CG    CG    0.000  1.000
     961 POLY   1 POL  CG    CG    0.000  1.000
     962 POLY   1 POL  CG    CG    0.000  1.000
     963 POLY   1 POL  CG    CG    0.000  1.000
     964 POLY   1 POL  CG    CG    0.000  1.000
     965 POLY   1 POL  CG    CG    0.000  1.000
     966 POLY   1 POL  CG    CG    0.000  1.000
     967 POLY   1 POL  CG    CG    0.000  1.000
     968 POLY   1 POL  CG    CG    0.000  1.000
     969 POLY   1 POL  CG    CG    0.000  1.000
     970 POLY   1 POL  CG    CG    0.000  1.000
     971 POLY   1 POL  CG    CG    0.000  1.000
     972 POLY   1 POL  CG    CG    0.000  1.000
     973 POLY   1 POL  CG    CG    0.000  1.000
     974 POLY   1 POL  CG    CG    0.000  1.000
     975 POLY   1 POL  CG    CG    0.000  1.000
     976 POLY   1 POL  CG    CG    0.000  1.000
     977 POLY   1 POL  CG    CG    0.000  1.000
     978 POLY   1 POL  CG    CG    0.000  1.000
     979 POLY   1 POL  CG    CG    0.000  1.000
     980 POLY   1 POL  CG    CG    0.000  1.000
     981 POLY   1 POL  CG    CG    0.000  1.000
     982 POLY   1 POL  CG    CG    0.000  1.000
     983 POLY   1 POL  CG    CG    0.000  1.000
     984 POLY   1 POL  CG    CG    0.000  1.000
     985 POLY   1 POL  CG    CG    0.000  1.000
     986 POLY   1 POL  CG    CG    0.000  1.000
     987 POLY   1 POL  CG    CG    0.000  1.000
     988 POLY   1 POL  CG    CG    0.000  1.000
     989 POLY   1 POL  CG    CG    0.000  1.000
     990 POLY   1 POL  CG    CG    0.000  1.000
     991 POLY   1 POL  CG    CG    0.000  1.000
     992 POLY   1 POL  CG    CG    0.000  1.000
     993 POLY   1 POL  CG    CG    0.000  1.000
     994 POLY   1 POL  CG    CG    0.000  1.000
     995 POLY   1 POL  CG    CG    0.000  1.000
     996 POLY   1 POL  CG    CG    0.000  1.000
     997 POLY   1 POL  CG    CG    0.000  1.000
     998 POLY   1 POL  CG    CG    0.000  1.000
     999 POLY   1 POL  CG    CG    0.000  1.000
    1000 POLY   1 POL  CG    CG    0.000  1.000

     999 !NBOND: bonds
       1       2       2       3       3       4       4       5
       5       6       6       7       7       8       8       9
       9      10      10      11      11      12      12      13
      13      14      14      15      15      16      16      17
      17      18      18      19      19      20      20      21
      21      22      22      23      23      24      24      25
      25      26      26      27      27      28      28      29
      29      30      30      31      31      32      32      33
      33      34      34      35      35      36      36      37
      37      38      38      39      39      40      40      41
      41      42      42      43      43      44      44      45
      45      46      46      47      47      48      48      49
      49      50      50      51      51      52      52      53
      53      54      54      55      55      56      56      57
      57      58      58      59      59      60      60      61
      61      62      62      63      63      64      64      65
      65      66      66      67      67      68      68      69
      69      70      70      71      71      72      72      73
      73      74      74      75      75      76      76      77
      77      78      78      79      79      80      80      81
      81      82      82      83      83      84      84      85
      85      86      86      87      87      88      88      89
      89      90      90      91      91      92      92      93
      93      94      94      95      95      96      96      97
      97      98      98      99      99     100     100     101
     101     102     102     103     103     104     104     105
     105     106     106     107     107     108     108     109
     109     110     110     111     111     112     112     113
     113     114     114     115     115     116     116     117
     117     118     118     119     119     120     120     121
     121     122     122     123     123     124     124     125
     125     126     126     127     127     128     128     129
     129     130     130     131     131     132     132     133
     133     134     134     135     135     136     136     137
     137     138     138     139     139     140     140     141
     141     142     142     143     143     144     144     145
     145     146     146     147     147     148     148     149
     149     150     150     151     151     152     152     153
     153     154     154     155     155     156     156     157
     157     158     158     159     159     160     160     161
     161     162     162     163     163     164     164     165
     165     166     166     167     167     168     168     169
     169     170     170     171     171     172     172     173
     173     174     174     175     175     176     176     177
     177     178     178     179     179     180     180     181
     181     182     182     183     183     184     184     185
     185     186     186     187     187     188     188     189
     189     190     190     191     191     192     192     193
     193     194     194     195     195     196     196     197
     197     198     198     199     199     200     200     201
     201     202     202     203     203     204     204     205
     205     206     206     207     207     208     208     209
     209     210     210     211     211     212     212     213
     213     214     214     215     215     216     216     217
     217     218     218     219     219     220     220     221
     221     222     222     223     223     224     224     225
     225     226     226     227     227     228     228     229
     229     230     230     231     231     232     232     233
     233     234     234     235     235     236     236     237
     237     238     238     239     239     240     240     241
     241     242     242     243     243     244     244     245
     245     246     246     247     247     248     248     249
     249     250     250     251     251     252     252     253
     253     254     254     255     255     256     256     257
     257     258     258     259     259     260     260     261
     261     262     262     263     263     264     264     265
     265     266     266     267     267     268     268     269
     269     270     270     271     271     272     272     273
     273     274     274     275     275     276     276     277
     277     278     278     279     279     280     280     281
     281     282     282     283     283     284     284     285
     285     286     286     287     287     288     288     289
     289     290     290     291     291     292     292     293
     293     294     294     295     295     296     296     297
     297     298     298     299     299     300     300     301
     301     302     302     303     303     304     304     305
     305     306     306     307     307     308     308     309
     309     310     310     311     311     312     312     313
     313     314     314     315     315     316     316     317
     317     318     318     319     319     320     320     321
     321     322     322     323     323     324     324     325
     325     326     326     327     327     328     328     329
     329     330     330     331     331     332     332     333
     333     334     334     335     335     336     336     337
     337     338     338     339     339     340     340     341
     341     342     342     343     343     344     344     345
     345     346     346     347     347     348     348     349
     349     350     350     351     351     352     352     353
     353     354     354     355     355     356     356     357
     357     358     358     359     359     360     360     361
     361     362     362     363     363     364     364     365
     365     366     366     367     367     368     368     369
     369     370     370     371     371     372     372     373
     373     374     374     375     375     376     376     377
     377     378     378     379     379     380     380     381
     381     382     382     383     383     384     384     385
     385     386     386     387     387     388     388     389
     389     390     390     391     391     392     392     393
     393     394     394     395     395     396     396     397
     397     398     398     399     399     400     400     401
     401     402     402     403     403     404     404     405
     405     406     406     407     407     408     408     409
     409     410     410     411     411     412     412     413
     413     414     414     415     415     416     416     417
     417     418     418     419     419     420     420     421
     421     422     422     423     423     424     424     425
     425     426     426     427     427     428     428     429
     429     430     430     431     431     432     432     433
     433     434     434     435     435     436     436     437
     437     438     438     439     439     440     440     441
     441     442     442     443     443     444     444     445
     445     446     446     447     447     448     448     449
     449     450     450     451     451     452     452     453
     453     454     454     455     455     456     456     457
     457     458     458     459     459     460     460     461
     461     462     462     463     463     464     464     465
     465     466     466     467     467     468     468     469
     469     470     470     471     471     472     472     473
     473     474     474     475     475     476     476     477
     477     478     478     479     479     480     480     481
     481     482     482     483     483     484     484     485
     485     486     486     487     487     488     488     489
     489     490     490     491     491     492     492     493
     493     494     494     495     495     496     496     497
     497     498     498     499     499     500     500     501
     501     502     502     503     503     504     504     505
     505     506     506     507     507     508     508     509
     509     510     510     511     511     512     512     513
     513     514     514     515     515     516     516     517
     517     518     518     519     519     520     520     521
     521     522     522     523     523     524     524     525
     525     526     526     527     527     528     528     529
     529     530     530     531     531     532     532     533
     533     534     534     535     535     536     536     537
     537     538     538     539     539     540     540     541
     541     542     542     543     543     544     544     545
     545     546     546     547     547     548     548     549
     549     550     550     551     551     552     552     553
     553     554     554     555     555     556     556     557
     557     558     558     559     559     560     560     561
     561     562     562     563     563     564     564     565
     565     566     566     567     567     568     568     569
     569     570     570     571     571     572     572     573
     573     574     574     575     575     576     576     577
     577     578     578     579     579     580     580     581
     581     582     582     583     583     584     584     585
     585     586     586     587     587     588     588     589
     589     590     590     591     591     592     592     593
     593     594     594     595     595     596     596     597
     597     598     598     599     599     600     600     601
     601     602     602     603     603     604     604     605
     605     606     606     607     607     608     608     609
     609     610     610     611     611     612     612     613
     613     614     614     615     615     616     616     617
     617     618     618     619     619     620     620     621
     621     622     622     623     623     624     624     625
     625     626     626     627     627     628     628     629
     629     630     630     631     631     632     632     633
     633     634     634     635     635     636     636     637
     637     638     638     639     639     640     640     641
     641     642     642     643     643     644     644     645
     645     646     646     647     647     648     648     649
     649     650     650     651     651     652     652     653
     653     654     654     655     655     656     656     657
     657     658     658     659     659     660     660     661
     661     662     662     663     663     664     664     665
     665     666     666     667     667     668     668     669
     669     670     670     671     671     672     672     673
     673     674     674     675     675     676     676     677
     677     678     678     679     679     680     680     681
     681     682     682     683     683     684     684     685
     685     686     686     687     687     688     688     689
     689     690     690     691     691     692     692     693
     693     694     694     695     695     696     696     697
     697     698     698     699     699     700     700     701
     701     702     702     703     703     704     704     705
     705     706     706     707     707     708     708     709
     709     710     710     711     711     712     712     713
     713     714     714     715     715     716     716     717
     717     718     718     719     719     720     720     721
     721     722     722     723     723     724     724     725
     725     726     726     727     727     728     728     729
     729     730     730     731     731     732     732     733
     733     734     734     735     735     736     736     737
     737     738     738     739     739     740     740     741
     741     742     742     743     743     744     744     745
     745     746     746     747     747     748     748     749
     749     750     750     751     751     752     752     753
     753     754     754     755     755     756     756     757
     757     758     758     759     759     760     760     761
     761     762     762     763     763     764     764     765
     765     766     766     767     767     768     768     769
     769     770     770     771     771     772     772     773
     773     774     774     775     775     776     776     777
     777     778     778     779     779     780     780     781
     781     782     782     783     783     784     784     785
     785     786     786     787     787     788     788     789
     789     790     790     791     791     792     792     793
     793     794     794     795     795     796     796     797
     797     798     798     799     799     800     800     801
     801     802     802     803     803     804     804     805
     805     806     806     807     807     808     808     809
     809     810     810     811     811     812     812     813
     813     814     814     815     815     816     816     817
     817     818     818     819     819     820     820     821
     821     822     822     823     823     824     824     825
     825     826     826     827     827     828     828     829
     829     830     830     831     831     832     832     833
     833     834     834     835     835     836     836     837
     837     838     838     839     839     840     840     841
     841     842     842     843     843     844     844     845
     845     846     846     847     847     848     848     849
     849     850     850     851     851     852     852     853
     853     854     854     855     855     856     856     857
     857     858     858     859     859     860     860     861
     861     862     862     863     863     864     864     865
     865     866     866     867     867     868     868     869
     869     870     870     871     871     872     872     873
     873     874     874     875     875     876     876     877
     877     878     878     879     879     880     880     881
     881     882     882     883     883     884     884     885
     885     886     886     887     887     888     888     889
     889     890     890     891     891     892     892     893
     893     894     894     895     895     896     896     897
     897     898     898     899     899     900     900     901
     901     902     902     903     903     904     904     905
     905     906     906     907     907     908     908     909
     909     910     910     911     911     912     912     913
     913     914     914     915     915     916     916     917
     917     918     918     919     919     920     920     921
     921     922     922     923     923     924     924     925
     925     926     926     927     927     928     928     929
     929     930     930     931     931     932     932     933
     933     934     934     935     935     936     936     937
     937     938     938     939     939     940     940     941
     941     942     942     943     943     944     944     945
     945     946     946     947     947     948     948     949
     949     950     950     951     951     952     952     953
     953     954     954     955     955     956     956     957
     957     958     958     959     959     960     960     961
     961     962     962     963     963     964     964     965
     965     966     966     967     967     968     968     969
     969     970     970     971     971     972     972     973
     973     974     974     975     975     976     976     977
     977     978     978     979     979     980     980     981
     981     982     982     983     983     984     984     985
     985     986     986     987     987     988     988     989
     989     990     990     991     991     992     992     993
     993     994     994     995     995     996     996     997
     997     998     998     999     999    1000
