PSF

       1 !NTITLE
 REMARKS coarse-grained polymer chain

   10000 !NATOM
       1 POLY   1 POL  CG    CG    0.000  1.000
       2 POLY   1 POL  CG    CG    0.000  1.000
       3 POLY   1 POL  CG    CG    0.000  1.000
       4 POLY   1 POL  CG    CG    0.000  1.000
       5 POLY   1 POL  CG    CG    0.000  1.000
       6 POLY   1 POL  CG    CG    0.000  1.000
       7 POLY   1 POL  CG    CG    0.000  1.000
       8 POLY   1 POL  CG    CG    0.000  1.000
       9 POLY   1 POL  CG    CG    0.000  1.000
      10 POLY   1 POL  CG    CG    0.000  1.000
      11 POLY   1 POL  CG    CG    0.000  1.000
      12 POLY   1 POL  CG    CG    0.000  1.000
      13 POLY   1 POL  CG    CG    0.000  1.000
      14 POLY   1 POL  CG    CG    0.000  1.000
      15 POLY   1 POL  CG    CG    0.000  1.000
      16 POLY   1 POL  CG    CG    0.000  1.000
      17 POLY   1 POL  CG    CG    0.000  1.000
      18 POLY   1 POL  CG    CG    0.000  1.000
      19 POLY   1 POL  CG    CG    0.000  1.000
      20 POLY   1 POL  CG    CG    0.000  1.000
      21 POLY   1 POL  CG    CG    0.000  1.000
      22 POLY   1 POL  CG    CG    0.000  1.000
      23 POLY   1 POL  CG    CG    0.000  1.000
      24 POLY   1 POL  CG    CG    0.000  1.000
      25 POLY   1 POL  CG    CG    0.000  1.000
      26 POLY   1 POL  CG    CG    0.000  1.000
      27 POLY   1 POL  CG    CG    0.000  1.000
      28 POLY   1 POL  CG    CG    0.000  1.000
      29 POLY   1 POL  CG    CG    0.000  1.000
      30 POLY   1 POL  CG    CG    0.000  1.000
      31 POLY   1 POL  CG    CG    0.000  1.000
      32 POLY   1 POL  CG    CG    0.000  1.000
      33 POLY   1 POL  CG    CG    0.000  1.000
      34 POLY   1 POL  CG    CG    0.000  1.000
      35 POLY   1 POL  CG    CG    0.000  1.000
      36 POLY   1 POL  CG    CG    0.000  1.000
      37 POLY   1 POL  CG    CG    0.000  1.000
      38 POLY   1 POL  CG    CG    0.000  1.000
      39 POLY   1 POL  CG    CG    0.000  1.000
      40 POLY   1 POL  CG    CG    0.000  1.000
      41 POLY   1 POL  CG    CG    0.000  1.000
      42 POLY   1 POL  CG    CG    0.000  1.000
      43 POLY   1 POL  CG    CG    0.000  1.000
      44 POLY   1 POL  CG    CG    0.000  1.000
      45 POLY   1 POL  CG    CG    0.000  1.000
      46 POLY   1 POL  CG    CG    0.000  1.000
      47 POLY   1 POL  CG    CG    0.000  1.000
      48 POLY   1 POL  CG    CG    0.000  1.000
      49 POLY   1 POL  CG    CG    0.000  1.000
      50 POLY   1 POL  CG    CG    0.000  1.000
      51 POLY   1 POL  CG    CG    0.000  1.000
      52 POLY   1 POL  CG    CG    0.000  1.000
      53 POLY   1 POL  CG    CG    0.000  1.000
      54 POLY   1 POL  CG    CG    0.000  1.000
      55 POLY   1 POL  CG    CG    0.000  1.000
      56 POLY   1 POL  CG    CG    0.000  1.000
      57 POLY   1 POL  CG    CG    0.000  1.000
      58 POLY   1 POL  CG    CG    0.000  1.000
      59 POLY   1 POL  CG    CG    0.000  1.000
      60 POLY   1 POL  CG    CG    0.000  1.000
      61 POLY   1 POL  CG    CG    0.000  1.000
      62 POLY   1 POL  CG    CG    0.000  1.000
      63 POLY   1 POL  CG    CG    0.000  1.000
      64 POLY   1 POL  CG    CG    0.000  1.000
      65 POLY   1 POL  CG    CG    0.000  1.000
      66 POLY   1 POL  CG    CG    0.000  1.000
      67 POLY   1 POL  CG    CG    0.000  1.000
      68 POLY   1 POL  CG    CG    0.000  1.000
      69 POLY   1 POL  CG    CG    0.000  1.000
      70 POLY   1 POL  CG    CG    0.000  1.000
      71 POLY   1 POL  CG    CG    0.000  1.000
      72 POLY   1 POL  CG    CG    0.000  1.000
      73 POLY   1 POL  CG    CG    0.000  1.000
      74 POLY   1 POL  CG    CG    0.000  1.000
      75 POLY   1 POL  CG    CG    0.000  1.000
      76 POLY   1 POL  CG    CG    0.000  1.000
      77 POLY   1 POL  CG    CG    0.000  1.000
      78 POLY   1 POL  CG    CG    0.000  1.000
      79 POLY   1 POL  CG    CG    0.000  1.000
      80 POLY   1 POL  CG    CG    0.000  1.000
      81 POLY   1 POL  CG    CG    0.000  1.000
      82 POLY   1 POL  CG    CG    0.000  1.000
      83 POLY   1 POL  CG    CG    0.000  1.000
      84 POLY   1 POL  CG    CG    0.000  1.000
      85 POLY   1 POL  CG    CG    0.000  1.000
      86 POLY   1 POL  CG    CG    0.000  1.000
      87 POLY   1 POL  CG    CG    0.000  1.000
      88 POLY   1 POL  CG    CG    0.000  1.000
      89 POLY   1 POL  CG    CG    0.000  1.000
      90 POLY   1 POL  CG    CG    0.000  1.000
      91 POLY   1 POL  CG    CG    0.000  1.000
      92 POLY   1 POL  CG    CG    0.000  1.000
      93 POLY   1 POL  CG    CG    0.000  1.000
      94 POLY   1 POL  CG    CG    0.000  1.000
      95 POLY   1 POL  CG    CG    0.000  1.000
      96 POLY   1 POL  CG    CG    0.000  1.000
      97 POLY   1 POL  CG    CG    0.000  1.000
      98 POLY   1 POL  CG    CG    0.000  1.000
      99 POLY   1 POL  CG    CG    0.000  1.000
     100 POLY   1 POL  CG    CG    0.000  1.000
     101 POLY   1 POL  CG    CG    0.000  1.000
     102 POLY   1 POL  CG    CG    0.000  1.000
     103 POLY   1 POL  CG    CG    0.000  1.000
     104 POLY   1 POL  CG    CG    0.000  1.000
     105 POLY   1 POL  CG    CG    0.000  1.000
     106 POLY   1 POL  CG    CG    0.000  1.000
     107 POLY   1 POL  CG    CG    0.000  1.000
     108 POLY   1 POL  CG    CG    0.000  1.000
     109 POLY   1 POL  CG    CG    0.000  1.000
     110 POLY   1 POL  CG    CG    0.000  1.000
     111 POLY   1 POL  CG    CG    0.000  1.000
     112 POLY   1 POL  CG    CG    0.000  1.000
     113 POLY   1 POL  CG    CG    0.000  1.000
     114 POLY   1 POL  CG    CG    0.000  1.000
     115 POLY   1 POL  CG    CG    0.000  1.000
     116 POLY   1 POL  CG    CG    0.000  1.000
     117 POLY   1 POL  CG    CG    0.000  1.000
     118 POLY   1 POL  CG    CG    0.000  1.000
     119 POLY   1 POL  CG    CG    0.000  1.000
     120 POLY   1 POL  CG    CG    0.000  1.000
     121 POLY   1 POL  CG    CG    0.000  1.000
     122 POLY   1 POL  CG    CG    0.000  1.000
     123 POLY   1 POL  CG    CG    0.000  1.000
     124 POLY   1 POL  CG    CG    0.000  1.000
     125 POLY   1 POL  CG    CG    0.000  1.000
     126 POLY   1 POL  CG    CG    0.000  1.000
     127 POLY   1 POL  CG    CG    0.000  1.000
     128 POLY   1 POL  CG    CG    0.000  1.000
     129 POLY   1 POL  CG    CG    0.000  1.000
     130 POLY   1 POL  CG    CG    0.000  1.000
     131 POLY   1 POL  CG    CG    0.000  1.000
     132 POLY   1 POL  CG    CG    0.000  1.000
     133 POLY   1 POL  CG    CG    0.000  1.000
     134 POLY   1 POL  CG    CG    0.000  1.000
     135 POLY   1 POL  CG    CG    0.000  1.000
     136 POLY   1 POL  CG    CG    0.000  1.000
     137 POLY   1 POL  CG    CG    0.000  1.000
     138 POLY   1 POL  CG    CG    0.000  1.000
     139 POLY   1 POL  CG    CG    0.000  1.000
     140 POLY   1 POL  CG    CG    0.000  1.000
     141 POLY   1 POL  CG    CG    0.000  1.000
     142 POLY   1 POL  CG    CG    0.000  1.000
     143 POLY   1 POL  CG    CG    0.000  1.000
     144 POLY   1 POL  CG    CG    0.000  1.000
     145 POLY   1 POL  CG    CG    0.000  1.000
     146 POLY   1 POL  CG    CG    0.000  1.000
     147 POLY   1 POL  CG    CG    0.000  1.000
     148 POLY   1 POL  CG    CG    0.000  1.000
     149 POLY   1 POL  CG    CG    0.000  1.000
     150 POLY   1 POL  CG    CG    0.000  1.000
     151 POLY   1 POL  CG    CG    0.000  1.000
     152 POLY   1 POL  CG    CG    0.000  1.000
     153 POLY   1 POL  CG    CG    0.000  1.000
     154 POLY   1 POL  CG    CG    0.000  1.000
     155 POLY   1 POL  CG    CG    0.000  1.000
     156 POLY   1 POL  CG    CG    0.000  1.000
     157 POLY   1 POL  CG    CG    0.000  1.000
     158 POLY   1 POL  CG    CG    0.000  1.000
     159 POLY   1 POL  CG    CG    0.000  1.000
     160 POLY   1 POL  CG    CG    0.000  1.000
     161 POLY   1 POL  CG    CG    0.000  1.000
     162 POLY   1 POL  CG    CG    0.000  1.000
     163 POLY   1 POL  CG    CG    0.000  1.000
     164 POLY   1 POL  CG    CG    0.000  1.000
     165 POLY   1 POL  CG    CG    0.000  1.000
     166 POLY   1 POL  CG    CG    0.000  1.000
     167 POLY   1 POL  CG    CG    0.000  1.000
     168 POLY   1 POL  CG    CG    0.000  1.000
     169 POLY   1 POL  CG    CG    0.000  1.000
     170 POLY   1 POL  CG    CG    0.000  1.000
     171 POLY   1 POL  CG    CG    0.000  1.000
     172 POLY   1 POL  CG    CG    0.000  1.000
     173 POLY   1 POL  CG    CG    0.000  1.000
     174 POLY   1 POL  CG    CG    0.000  1.000
     175 POLY   1 POL  CG    CG    0.000  1.000
     176 POLY   1 POL  CG    CG    0.000  1.000
     177 POLY   1 POL  CG    CG    0.000  1.000
     178 POLY   1 POL  CG    CG    0.000  1.000
     179 POLY   1 POL  CG    CG    0.000  1.000
     180 POLY   1 POL  CG    CG    0.000  1.000
     181 POLY   1 POL  CG    CG    0.000  1.000
     182 POLY   1 POL  CG    CG    0.000  1.000
     183 POLY   1 POL  CG    CG    0.000  1.000
     184 POLY   1 POL  CG    CG    0.000  1.000
     185 POLY   1 POL  CG    CG    0.000  1.000
     186 POLY   1 POL  CG    CG    0.000  1.000
     187 POLY   1 POL  CG    CG    0.000  1.000
     188 POLY   1 POL  CG    CG    0.000  1.000
     189 POLY   1 POL  CG    CG    0.000  1.000
     190 POLY   1 POL  CG    CG    0.000  1.000
     191 POLY   1 POL  CG    CG    0.000  1.000
     192 POLY   1 POL  CG    CG    0.000  1.000
     193 POLY   1 POL  CG    CG    0.000  1.000
     194 POLY   1 POL  CG    CG    0.000  1.000
     195 POLY   1 POL  CG    CG    0.000  1.000
     196 POLY   1 POL  CG    CG    0.000  1.000
     197 POLY   1 POL  CG    CG    0.000  1.000
     198 POLY   1 POL  CG    CG    0.000  1.000
     199 POLY   1 POL  CG    CG    0.000  1.000
     200 POLY   1 POL  CG    CG    0.000  1.000
     201 POLY   1 POL  CG    CG    0.000  1.000
     202 POLY   1 POL  CG    CG    0.000  1.000
     203 POLY   1 POL  CG    CG    0.000  1.000
     204 POLY   1 POL  CG    CG    0.000  1.000
     205 POLY   1 POL  CG    CG    0.000  1.000
     206 POLY   1 POL  CG    CG    0.000  1.000
     207 POLY   1 POL  CG    CG    0.000  1.000
     208 POLY   1 POL  CG    CG    0.000  1.000
     209 POLY   1 POL  CG    CG    0.000  1.000
     210 POLY   1 POL  CG    CG    0.000  1.000
     211 POLY   1 POL  CG    CG    0.000  1.000
     212 POLY   1 POL  CG    CG    0.000  1.000
     213 POLY   1 POL  CG    CG    0.000  1.000
     214 POLY   1 POL  CG    CG    0.000  1.000
     215 POLY   1 POL  CG    CG    0.000  1.000
     216 POLY   1 POL  CG    CG    0.000  1.000
     217 POLY   1 POL  CG    CG    0.000  1.000
     218 POLY   1 POL  CG    CG    0.000  1.000
     219 POLY   1 POL  CG    CG    0.000  1.000
     220 POLY   1 POL  CG    CG    0.000  1.000
     221 POLY   1 POL  CG    CG    0.000  1.000
     222 POLY   1 POL  CG    CG    0.000  1.000
     223 POLY   1 POL  CG    CG    0.000  1.000
     224 POLY   1 POL  CG    CG    0.000  1.000
     225 POLY   1 POL  CG    CG    0.000  1.000
     226 POLY   1 POL  CG    CG    0.000  1.000
     227 POLY   1 POL  CG    CG    0.000  1.000
     228 POLY   1 POL  CG    CG    0.000  1.000
     229 POLY   1 POL  CG    CG    0.000  1.000
     230 POLY   1 POL  CG    CG    0.000  1.000
     231 POLY   1 POL  CG    CG    0.000  1.000
     232 POLY   1 POL  CG    CG    0.000  1.000
     233 POLY   1 POL  CG    CG    0.000  1.000
     234 POLY   1 POL  CG    CG    0.000  1.000
     235 POLY   1 POL  CG    CG    0.000  1.000
     236 POLY   1 POL  CG    CG    0.000  1.000
     237 POLY   1 POL  CG    CG    0.000  1.000
     238 POLY   1 POL  CG    CG    0.000  1.000
     239 POLY   1 POL  CG    CG    0.000  1.000
     240 POLY   1 POL  CG    CG    0.000  1.000
     241 POLY   1 POL  CG    CG    0.000  1.000
     242 POLY   1 POL  CG    CG    0.000  1.000
     243 POLY   1 POL  CG    CG    0.000  1.000
     244 POLY   1 POL  CG    CG    0.000  1.000
     245 POLY   1 POL  CG    CG    0.000  1.000
     246 POLY   1 POL  CG    CG    0.000  1.000
     247 POLY   1 POL  CG    CG    0.000  1.000
     248 POLY   1 POL  CG    CG    0.000  1.000
     249 POLY   1 POL  CG    CG    0.000  1.000
     250 POLY   1 POL  CG    CG    0.000  1.000
     251 POLY   1 POL  CG    CG    0.000  1.000
     252 POLY   1 POL  CG    CG    0.000  1.000
     253 POLY   1 POL  CG    CG    0.000  1.000
     254 POLY   1 POL  CG    CG    0.000  1.000
     255 POLY   1 POL  CG    CG    0.000  1.000
     256 POLY   1 POL  CG    CG    0.000  1.000
     257 POLY   1 POL  CG    CG    0.000  1.000
     258 POLY   1 POL  CG    CG    0.000  1.000
     259 POLY   1 POL  CG    CG    0.000  1.000
     260 POLY   1 POL  CG    CG    0.000  1.000
     261 POLY   1 POL  CG    CG    0.000  1.000
     262 POLY   1 POL  CG    CG    0.000  1.000
     263 POLY   1 POL  CG    CG    0.000  1.000
     264 POLY   1 POL  CG    CG    0.000  1.000
     265 POLY   1 POL  CG    CG    0.000  1.000
     266 POLY   1 POL  CG    CG    0.000  1.000
     267 POLY   1 POL  CG    CG    0.000  1.000
     268 POLY   1 POL  CG    CG    0.000  1.000
     269 POLY   1 POL  CG    CG    0.000  1.000
     270 POLY   1 POL  CG    CG    0.000  1.000
     271 POLY   1 POL  CG    CG    0.000  1.000
     272 POLY   1 POL  CG    CG    0.000  1.000
     273 POLY   1 POL  CG    CG    0.000  1.000
     274 POLY   1 POL  CG    CG    0.000  1.000
     275 POLY   1 POL  CG    CG    0.000  1.000
     276 POLY   1 POL  CG    CG    0.000  1.000
     277 POLY   1 POL  CG    CG    0.000  1.000
     278 POLY   1 POL  CG    CG    0.000  1.000
     279 POLY   1 POL  CG    CG    0.000  1.000
     280 POLY   1 POL  CG    CG    0.000  1.000
     281 POLY   1 POL  CG    CG    0.000  1.000
     282 POLY   1 POL  CG    CG    0.000  1.000
     283 POLY   1 POL  CG    CG    0.000  1.000
     284 POLY   1 POL  CG    CG    0.000  1.000
     285 POLY   1 POL  CG    CG    0.000  1.000
     286 POLY   1 POL  CG    CG    0.000  1.000
     287 POLY   1 POL  CG    CG    0.000  1.000
     288 POLY   1 POL  CG    CG    0.000  1.000
     289 POLY   1 POL  CG    CG    0.000  1.000
     290 POLY   1 POL  CG    CG    0.000  1.000
     291 POLY   1 POL  CG    CG    0.000  1.000
     292 POLY   1 POL  CG    CG    0.000  1.000
     293 POLY   1 POL  CG    CG    0.000  1.000
     294 POLY   1 POL  CG    CG    0.000  1.000
     295 POLY   1 POL  CG    CG    0.000  1.000
     296 POLY   1 POL  CG    CG    0.000  1.000
     297 POLY   1 POL  CG    CG    0.000  1.000
     298 POLY   1 POL  CG    CG    0.000  1.000
     299 POLY   1 POL  CG    CG    0.000  1.000
     300 POLY   1 POL  CG    CG    0.000  1.000
     301 POLY   1 POL  CG    CG    0.000  1.000
     302 POLY   1 POL  CG    CG    0.000  1.000
     303 POLY   1 POL  CG    CG    0.000  1.000
     304 POLY   1 POL  CG    CG    0.000  1.000
     305 POLY   1 POL  CG    CG    0.000  1.000
     306 POLY   1 POL  CG    CG    0.000  1.000
     307 POLY   1 POL  CG    CG    0.000  1.000
     308 POLY   1 POL  CG    CG    0.000  1.000
     309 POLY   1 POL  CG    CG    0.000  1.000
     310 POLY   1 POL  CG    CG    0.000  1.000
     311 POLY   1 POL  CG    CG    0.000  1.000
     312 POLY   1 POL  CG    CG    0.000  1.000
     313 POLY   1 POL  CG    CG    0.000  1.000
     314 POLY   1 POL  CG    CG    0.000  1.000
     315 POLY   1 POL  CG    CG    0.000  1.000
     316 POLY   1 POL  CG    CG    0.000  1.000
     317 POLY   1 POL  CG    CG    0.000  1.000
     318 POLY   1 POL  CG    CG    0.000  1.000
     319 POLY   1 POL  CG    CG    0.000  1.000
     320 POLY   1 POL  CG    CG    0.000  1.000
     321 POLY   1 POL  CG    CG    0.000  1.000
     322 POLY   1 POL  CG    CG    0.000  1.000
     323 POLY   1 POL  CG    CG    0.000  1.000
     324 POLY   1 POL  CG    CG    0.000  1.000
     325 POLY   1 POL  CG    CG    0.000  1.000
     326 POLY   1 POL  CG    CG    0.000  1.000
     327 POLY   1 POL  CG    CG    0.000  1.000
     328 POLY   1 POL  CG    CG    0.000  1.000
     329 POLY   1 POL  CG    CG    0.000  1.000
     330 POLY   1 POL  CG    CG    0.000  1.000
     331 POLY   1 POL  CG    CG    0.000  1.000
     332 POLY   1 POL  CG    CG    0.000  1.000
     333 POLY   1 POL  CG    CG    0.000  1.000
     334 POLY   1 POL  CG    CG    0.000  1.000
     335 POLY   1 POL  CG    CG    0.000  1.000
     336 POLY   1 POL  CG    CG    0.000  1.000
     337 POLY   1 POL  CG    CG    0.000  1.000
     338 POLY   1 POL  CG    CG    0.000  1.000
     339 POLY   1 POL  CG    CG    0.000  1.000
     340 POLY   1 POL  CG    CG    0.000  1.000
     341 POLY   1 POL  CG    CG    0.000  1.000
     342 POLY   1 POL  CG    CG    0.000  1.000
     343 POLY   1 POL  CG    CG    0.000  1.000
     344 POLY   1 POL  CG    CG    0.000  1.000
     345 POLY   1 POL  CG    CG    0.000  1.000
     346 POLY   1 POL  CG    CG    0.000  1.000
     347 POLY   1 POL  CG    CG    0.000  1.000
     348 POLY   1 POL  CG    CG    0.000  1.000
     349 POLY   1 POL  CG    CG    0.000  1.000
     350 POLY   1 POL  CG    CG    0.000  1.000
     351 POLY   1 POL  CG    CG    0.000  1.000
     352 POLY   1 POL  CG    CG    0.000  1.000
     353 POLY   1 POL  CG    CG    0.000  1.000
     354 POLY   1 POL  CG    CG    0.000  1.000
     355 POLY   1 POL  CG    CG    0.000  1.000
     356 POLY   1 POL  CG    CG    0.000  1.000
     357 POLY   1 POL  CG    CG    0.000  1.000
     358 POLY   1 POL  CG    CG    0.000  1.000
     359 POLY   1 POL  CG    CG    0.000  1.000
     360 POLY   1 POL  CG    CG    0.000  1.000
     361 POLY   1 POL  CG    CG    0.000  1.000
     362 POLY   1 POL  CG    CG    0.000  1.000
     363 POLY   1 POL  CG    CG    0.000  1.000
     364 POLY   1 POL  CG    CG    0.000  1.000
     365 POLY   1 POL  CG    CG    0.000  1.000
     366 POLY   1 POL  CG    CG    0.000  1.000
     367 POLY   1 POL  CG    CG    0.000  1.000
     368 POLY   1 POL  CG    CG    0.000  1.000
     369 POLY   1 POL  CG    CG    0.000  1.000
     370 POLY   1 POL  CG    CG    0.000  1.000
     371 POLY   1 POL  CG    CG    0.000  1.000
     372 POLY   1 POL  CG    CG    0.000  1.000
     373 POLY   1 POL  CG    CG    0.000  1.000
     374 POLY   1 POL  CG    CG    0.000  1.000
     375 POLY   1 POL  CG    CG    0.000  1.000
     376 POLY   1 POL  CG    CG    0.000  1.000
     377 POLY   1 POL  CG    CG    0.000  1.000
     378 POLY   1 POL  CG    CG    0.000  1.000
     379 POLY   1 POL  CG    CG    0.000  1.000
     380 POLY   1 POL  CG    CG    0.000  1.000
     381 POLY   1 POL  CG    CG    0.000  1.000
     382 POLY   1 POL  CG    CG    0.000  1.000
     383 POLY   1 POL  CG    CG    0.000  1.000
     384 POLY   1 POL  CG    CG    0.000  1.000
     385 POLY   1 POL  CG    CG    0.000  1.000
     386 POLY   1 POL  CG    CG    0.000  1.000
     387 POLY   1 POL  CG    CG    0.000  1.000
     388 POLY   1 POL  CG    CG    0.000  1.000
     389 POLY   1 POL  CG    CG    0.000  1.000
     390 POLY   1 POL  CG    CG    0.000  1.000
     391 POLY   1 POL  CG    CG    0.000  1.000
     392 POLY   1 POL  CG    CG    0.000  1.000
     393 POLY   1 POL  CG    CG    0.000  1.000
     394 POLY   1 POL  CG    CG    0.000  1.000
     395 POLY   1 POL  CG    CG    0.000  1.000
     396 POLY   1 POL  CG    CG    0.000  1.000
     397 POLY   1 POL  CG    CG    0.000  1.000
     398 POLY   1 POL  CG    CG    0.000  1.000
     399 POLY   1 POL  CG    CG    0.000  1.000
     400 POLY   1 POL  CG    CG    0.000  1.000
     401 POLY   1 POL  CG    CG    0.000  1.000
     402 POLY   1 POL  CG    CG    0.000  1.000
     403 POLY   1 POL  CG    CG    0.000  1.000
     404 POLY   1 POL  CG    CG    0.000  1.000
     405 POLY   1 POL  CG    CG    0.000  1.000
     406 POLY   1 POL  CG    CG    0.000  1.000
     407 POLY   1 POL  CG    CG    0.000  1.000
     408 POLY   1 POL  CG    CG    0.000  1.000
     409 POLY   1 POL  CG    CG    0.000  1.000
     410 POLY   1 POL  CG    CG    0.000  1.000
     411 POLY   1 POL  CG    CG    0.000  1.000
     412 POLY   1 POL  CG    CG    0.000  1.000
     413 POLY   1 POL  CG    CG    0.000  1.000
     414 POLY   1 POL  CG    CG    0.000  1.000
     415 POLY   1 POL  CG    CG    0.000  1.000
     416 POLY   1 POL  CG    CG    0.000  1.000
     417 POLY   1 POL  CG    CG    0.000  1.000
     418 POLY   1 POL  CG    CG    0.000  1.000
     419 POLY   1 POL  CG    CG    0.000  1.000
     420 POLY   1 POL  CG    CG    0.000  1.000
     421 POLY   1 POL  CG    CG    0.000  1.000
     422 POLY   1 POL  CG    CG    0.000  1.000
     423 POLY   1 POL  CG    CG    0.000  1.000
     424 POLY   1 POL  CG    CG    0.000  1.000
     425 POLY   1 POL  CG    CG    0.000  1.000
     426 POLY   1 POL  CG    CG    0.000  1.000
     427 POLY   1 POL  CG    CG    0.000  1.000
     428 POLY   1 POL  CG    CG    0.000  1.000
     429 POLY   1 POL  CG    CG    0.000  1.000
     430 POLY   1 POL  CG    CG    0.000  1.000
     431 POLY   1 POL  CG    CG    0.000  1.000
     432 POLY   1 POL  CG    CG    0.000  1.000
     433 POLY   1 POL  CG    CG    0.000  1.000
     434 POLY   1 POL  CG    CG    0.000  1.000
     435 POLY   1 POL  CG    CG    0.000  1.000
     436 POLY   1 POL  CG    CG    0.000  1.000
     437 POLY   1 POL  CG    CG    0.000  1.000
     438 POLY   1 POL  CG    CG    0.000  1.000
     439 POLY   1 POL  CG    CG    0.000  1.000
     440 POLY   1 POL  CG    CG    0.000  1.000
     441 POLY   1 POL  CG    CG    0.000  1.000
     442 POLY   1 POL  CG    CG    0.000  1.000
     443 POLY   1 POL  CG    CG    0.000  1.000
     444 POLY   1 POL  CG    CG    0.000  1.000
     445 POLY   1 POL  CG    CG    0.000  1.000
     446 POLY   1 POL  CG    CG    0.000  1.000
     447 POLY   1 POL  CG    CG    0.000  1.000
     448 POLY   1 POL  CG    CG    0.000  1.000
     449 POLY   1 POL  CG    CG    0.000  1.000
     450 POLY   1 POL  CG    CG    0.000  1.000
     451 POLY   1 POL  CG    CG    0.000  1.000
     452 POLY   1 POL  CG    CG    0.000  1.000
     453 POLY   1 POL  CG    CG    0.000  1.000
     454 POLY   1 POL  CG    CG    0.000  1.000
     455 POLY   1 POL  CG    CG    0.000  1.000
     456 POLY   1 POL  CG    CG    0.000  1.000
     457 POLY   1 POL  CG    CG    0.000  1.000
     458 POLY   1 POL  CG    CG    0.000  1.000
     459 POLY   1 POL  CG    CG    0.000  1.000
     460 POLY   1 POL  CG    CG    0.000  1.000
     461 POLY   1 POL  CG    CG    0.000  1.000
     462 POLY   1 POL  CG    CG    0.000  1.000
     463 POLY   1 POL  CG    CG    0.000  1.000
     464 POLY   1 POL  CG    CG    0.000  1.000
     465 POLY   1 POL  CG    CG    0.000  1.000
     466 POLY   1 POL  CG    CG    0.000  1.000
     467 POLY   1 POL  CG    CG    0.000  1.000
     468 POLY   1 POL  CG    CG    0.000  1.000
     469 POLY   1 POL  CG    CG    0.000  1.000
     470 POLY   1 POL  CG    CG    0.000  1.000
     471 POLY   1 POL  CG    CG    0.000  1.000
     472 POLY   1 POL  CG    CG    0.000  1.000
     473 POLY   1 POL  CG    CG    0.000  1.000
     474 POLY   1 POL  CG    CG    0.000  1.000
     475 POLY   1 POL  CG    CG    0.000  1.000
     476 POLY   1 POL  CG    CG    0.000  1.000
     477 POLY   1 POL  CG    CG    0.000  1.000
     478 POLY   1 POL  CG    CG    0.000  1.000
     479 POLY   1 POL  CG    CG    0.000  1.000
     480 POLY   1 POL  CG    CG    0.000  1.000
     481 POLY   1 POL  CG    CG    0.000  1.000
     482 POLY   1 POL  CG    CG    0.000  1.000
     483 POLY   1 POL  CG    CG    0.000  1.000
     484 POLY   1 POL  CG    CG    0.000  1.000
     485 POLY   1 POL  CG    CG    0.000  1.000
     486 POLY   1 POL  CG    CG    0.000  1.000
     487 POLY   1 POL  CG    CG    0.000  1.000
     488 POLY   1 POL  CG    CG    0.000  1.000
     489 POLY   1 POL  CG    CG    0.000  1.000
     490 POLY   1 POL  CG    CG    0.000  1.000
     491 POLY   1 POL  CG    CG    0.000  1.000
     492 POLY   1 POL  CG    CG    0.000  1.000
     493 POLY   1 POL  CG    CG    0.000  1.000
     494 POLY   1 POL  CG    CG    0.000  1.000
     495 POLY   1 POL  CG    CG    0.000  1.000
     496 POLY   1 POL  CG    CG    0.000  1.000
     497 POLY   1 POL  CG    CG    0.000  1.000
     498 POLY   1 POL  CG    CG    0.000  1.000
     499 POLY   1 POL  CG    CG    0.000  1.000
     500 POLY   1 POL  CG    CG    0.000  1.000
     501 POLY   1 POL  CG    CG    0.000  1.000
     502 POLY   1 POL  CG    CG    0.000  1.000
     503 POLY   1 POL  CG    CG    0.000  1.000
     504 POLY   1 POL  CG    CG    0.000  1.000
     505 POLY   1 POL  CG    CG    0.000  1.000
     506 POLY   1 POL  CG    CG    0.000  1.000
     507 POLY   1 POL  CG    CG    0.000  1.000
     508 POLY   1 POL  CG    CG    0.000  1.000
     509 POLY   1 POL  CG    CG    0.000  1.000
     510 POLY   1 POL  CG    CG    0.000  1.000
     511 POLY   1 POL  CG    CG    0.000  1.000
     512 POLY   1 POL  CG    CG    0.000  1.000
     513 POLY   1 POL  CG    CG    0.000  1.000
     514 POLY   1 POL  CG    CG    0.000  1.000
     515 POLY   1 POL  CG    CG    0.000  1.000
     516 POLY   1 POL  CG    CG    0.000  1.000
     517 POLY   1 POL  CG    CG    0.000  1.000
     518 POLY   1 POL  CG    CG    0.000  1.000
     519 POLY   1 POL  CG    CG    0.000  1.000
     520 POLY   1 POL  CG    CG    0.000  1.000
     521 POLY   1 POL  CG    CG    0.000  1.000
     522 POLY   1 POL  CG    CG    0.000  1.000
     523 POLY   1 POL  CG    CG    0.000  1.000
     524 POLY   1 POL  CG    CG    0.000  1.000
     525 POLY   1 POL  CG    CG    0.000  1.000
     526 POLY   1 POL  CG    CG    0.000  1.000
     527 POLY   1 POL  CG    CG    0.000  1.000
     528 POLY   1 POL  CG    CG    0.000  1.000
     529 POLY   1 POL  CG    CG    0.000  1.000
     530 POLY   1 POL  CG    CG    0.000  1.000
     531 POLY   1 POL  CG    CG    0.000  1.000
     532 POLY   1 POL  CG    CG    0.000  1.000
     533 POLY   1 POL  CG    CG    0.000  1.000
     534 POLY   1 POL  CG    CG    0.000  1.000
     535 POLY   1 POL  CG    CG    0.000  1.000
     536 POLY   1 POL  CG    CG    0.000  1.000
     537 POLY   1 POL  CG    CG    0.000  1.000
     538 POLY   1 POL  CG    CG    0.000  1.000
     539 POLY   1 POL  CG    CG    0.000  1.000
     540 POLY   1 POL  CG    CG    0.000  1.000
     541 POLY   1 POL  CG    CG    0.000  1.000
     542 POLY   1 POL  CG    CG    0.000  1.000
     543 POLY   1 POL  CG    CG    0.000  1.000
     544 POLY   1 POL  CG    CG    0.000  1.000
     545 POLY   1 POL  CG    CG    0.000  1.000
     546 POLY   1 POL  CG    CG    0.000  1.000
     547 POLY   1 POL  CG    CG    0.000  1.000
     548 POLY   1 POL  CG    CG    0.000  1.000
     549 POLY   1 POL  CG    CG    0.000  1.000
     550 POLY   1 POL  CG    CG    0.000  1.000
     551 POLY   1 POL  CG    CG    0.000  1.000
     552 POLY   1 POL  CG    CG    0.000  1.000
     553 POLY   1 POL  CG    CG    0.000  1.000
     554 POLY   1 POL  CG    CG    0.000  1.000
     555 POLY   1 POL  CG    CG    0.000  1.000
     556 POLY   1 POL  CG    CG    0.000  1.000
     557 POLY   1 POL  CG    CG    0.000  1.000
     558 POLY   1 POL  CG    CG    0.000  1.000
     559 POLY   1 POL  CG    CG    0.000  1.000
     560 POLY   1 POL  CG    CG    0.000  1.000
     561 POLY   1 POL  CG    CG    0.000  1.000
     562 POLY   1 POL  CG    CG    0.000  1.000
     563 POLY   1 POL  CG    CG    0.000  1.000
     564 POLY   1 POL  CG    CG    0.000  1.000
     565 POLY   1 POL  CG    CG    0.000  1.000
     566 POLY   1 POL  CG    CG    0.000  1.000
     567 POLY   1 POL  CG    CG    0.000  1.000
     568 POLY   1 POL  CG    CG    0.000  1.000
     569 POLY   1 POL  CG    CG    0.000  1.000
     570 POLY   1 POL  CG    CG    0.000  1.000
     571 POLY   1 POL  CG    CG    0.000  1.000
     572 POLY   1 POL  CG    CG    0.000  1.000
     573 POLY   1 POL  CG    CG    0.000  1.000
     574 POLY   1 POL  CG    CG    0.000  1.000
     575 POLY   1 POL  CG    CG    0.000  1.000
     576 POLY   1 POL  CG    CG    0.000  1.000
     577 POLY   1 POL  CG    CG    0.000  1.000
     578 POLY   1 POL  CG    CG    0.000  1.000
     579 POLY   1 POL  CG    CG    0.000  1.000
     580 POLY   1 POL  CG    CG    0.000  1.000
     581 POLY   1 POL  CG    CG    0.000  1.000
     582 POLY   1 POL  CG    CG    0.000  1.000
     583 POLY   1 POL  CG    CG    0.000  1.000
     584 POLY   1 POL  CG    CG    0.000  1.000
     585 POLY   1 POL  CG    CG    0.000  1.000
     586 POLY   1 POL  CG    CG    0.000  1.000
     587 POLY   1 POL  CG    CG    0.000  1.000
     588 POLY   1 POL  CG    CG    0.000  1.000
     589 POLY   1 POL  CG    CG    0.000  1.000
     590 POLY   1 POL  CG    CG    0.000  1.000
     591 POLY   1 POL  CG    CG    0.000  1.000
     592 POLY   1 POL  CG    CG    0.000  1.000
     593 POLY   1 POL  CG    CG    0.000  1.000
     594 POLY   1 POL  CG    CG    0.000  1.000
     595 POLY   1 POL  CG    CG    0.000  1.000
     596 POLY   1 POL  CG    CG    0.000  1.000
     597 POLY   1 POL  CG    CG    0.000  1.000
     598 POLY   1 POL  CG    CG    0.000  1.000
     599 POLY   1 POL  CG    CG    0.000  1.000
     600 POLY   1 POL  CG    CG    0.000  1.000
     601 POLY   1 POL  CG    CG    0.000  1.000
     602 POLY   1 POL  CG    CG    0.000  1.000
     603 POLY   1 POL  CG    CG    0.000  1.000
     604 POLY   1 POL  CG    CG    0.000  1.000
     605 POLY   1 POL  CG    CG    0.000  1.000
     606 POLY   1 POL  CG    CG    0.000  1.000
     607 POLY   1 POL  CG    CG    0.000  1.000
     608 POLY   1 POL  CG    CG    0.000  1.000
     609 POLY   1 POL  CG    CG    0.000  1.000
     610 POLY   1 POL  CG    CG    0.000  1.000
     611 POLY   1 POL  CG    CG    0.000  1.000
     612 POLY   1 POL  CG    CG    0.000  1.000
     613 POLY   1 POL  CG    CG    0.000  1.000
     614 POLY   1 POL  CG    CG    0.000  1.000
     615 POLY   1 POL  CG    CG    0.000  1.000
     616 POLY   1 POL  CG    CG    0.000  1.000
     617 POLY   1 POL  CG    CG    0.000  1.000
     618 POLY   1 POL  CG    CG    0.000  1.000
     619 POLY   1 POL  CG    CG    0.000  1.000
     620 POLY   1 POL  CG    CG    0.000  1.000
     621 POLY   1 POL  CG    CG    0.000  1.000
     622 POLY   1 POL  CG    CG    0.000  1.000
     623 POLY   1 POL  CG    CG    0.000  1.000
     624 POLY   1 POL  CG    CG    0.000  1.000
     625 POLY   1 POL  CG    CG    0.000  1.000
     626 POLY   1 POL  CG    CG    0.000  1.000
     627 POLY   1 POL  CG    CG    0.000  1.000
     628 POLY   1 POL  CG    CG    0.000  1.000
     629 POLY   1 POL  CG    CG    0.000  1.000
     630 POLY   1 POL  CG    CG    0.000  1.000
     631 POLY   1 POL  CG    CG    0.000  1.000
     632 POLY   1 POL  CG    CG    0.000  1.000
     633 POLY   1 POL  CG    CG    0.000  1.000
     634 POLY   1 POL  CG    CG    0.000  1.000
     635 POLY   1 POL  CG    CG    0.000  1.000
     636 POLY   1 POL  CG    CG    0.000  1.000
     637 POLY   1 POL  CG    CG    0.000  1.000
     638 POLY   1 POL  CG    CG    0.000  1.000
     639 POLY   1 POL  CG    CG    0.000  1.000
     640 POLY   1 POL  CG    CG    0.000  1.000
     641 POLY   1 POL  CG    CG    0.000  1.000
     642 POLY   1 POL  CG    CG    0.000  1.000
     643 POLY   1 POL  CG    CG    0.000  1.000
     644 POLY   1 POL  CG    CG    0.000  1.000
     645 POLY   1 POL  CG    CG    0.000  1.000
     646 POLY   1 POL  CG    CG    0.000  1.000
     647 POLY   1 POL  CG    CG    0.000  1.000
     648 POLY   1 POL  CG    CG    0.000  1.000
     649 POLY   1 POL  CG    CG    0.000  1.000
     650 POLY   1 POL  CG    CG    0.000  1.000
     651 POLY   1 POL  CG    CG    0.000  1.000
     652 POLY   1 POL  CG    CG    0.000  1.000
     653 POLY   1 POL  CG    CG    0.000  1.000
     654 POLY   1 POL  CG    CG    0.000  1.000
     655 POLY   1 POL  CG    CG    0.000  1.000
     656 POLY   1 POL  CG    CG    0.000  1.000
     657 POLY   1 POL  CG    CG    0.000  1.000
     658 POLY   1 POL  CG    CG    0.000  1.000
     659 POLY   1 POL  CG    CG    0.000  1.000
     660 POLY   1 POL  CG    CG    0.000  1.000
     661 POLY   1 POL  CG    CG    0.000  1.000
     662 POLY   1 POL  CG    CG    0.000  1.000
     663 POLY   1 POL  CG    CG    0.000  1.000
     664 POLY   1 POL  CG    CG    0.000  1.000
     665 POLY   1 POL  CG    CG    0.000  1.000
     666 POLY   1 POL  CG    CG    0.000  1.000
     667 POLY   1 POL  CG    CG    0.000  1.000
     668 POLY   1 POL  CG    CG    0.000  1.000
     669 POLY   1 POL  CG    CG    0.000  1.000
     670 POLY   1 POL  CG    CG    0.000  1.000
     671 POLY   1 POL  CG    CG    0.000  1.000
     672 POLY   1 POL  CG    CG    0.000  1.000
     673 POLY   1 POL  CG    CG    0.000  1.000
     674 POLY   1 POL  CG    CG    0.000  1.000
     675 POLY   1 POL  CG    CG    0.000  1.000
     676 POLY   1 POL  CG    CG    0.000  1.000
     677 POLY   1 POL  CG    CG    0.000  1.000
     678 POLY   1 POL  CG    CG    0.000  1.000
     679 POLY   1 POL  CG    CG    0.000  1.000
     680 POLY   1 POL  CG    CG    0.000  1.000
     681 POLY   1 POL  CG    CG    0.000  1.000
     682 POLY   1 POL  CG    CG    0.000  1.000
     683 POLY   1 POL  CG    CG    0.000  1.000
     684 POLY   1 POL  CG    CG    0.000  1.000
     685 POLY   1 POL  CG    CG    0.000  1.000
     686 POLY   1 POL  CG    CG    0.000  1.000
     687 POLY   1 POL  CG    CG    0.000  1.000
     688 POLY   1 POL  CG    CG    0.000  1.000
     689 POLY   1 POL  CG    CG    0.000  1.000
     690 POLY   1 POL  CG    CG    0.000  1.000
     691 POLY   1 POL  CG    CG    0.000  1.000
     692 POLY   1 POL  CG    CG    0.000  1.000
     693 POLY   1 POL  CG    CG    0.000  1.000
     694 POLY   1 POL  CG    CG    0.000  1.000
     695 POLY   1 POL  CG    CG    0.000  1.000
     696 POLY   1 POL  CG    CG    0.000  1.000
     697 POLY   1 POL  CG    CG    0.000  1.000
     698 POLY   1 POL  CG    CG    0.000  1.000
     699 POLY   1 POL  CG    CG    0.000  1.000
     700 POLY   1 POL  CG    CG    0.000  1.000
     701 POLY   1 POL  CG    CG    0.000  1.000
     702 POLY   1 POL  CG    CG    0.000  1.000
     703 POLY   1 POL  CG    CG    0.000  1.000
     704 POLY   1 POL  CG    CG    0.000  1.000
     705 POLY   1 POL  CG    CG    0.000  1.000
     706 POLY   1 POL  CG    CG    0.000  1.000
     707 POLY   1 POL  CG    CG    0.000  1.000
     708 POLY   1 POL  CG    CG    0.000  1.000
     709 POLY   1 POL  CG    CG    0.000  1.000
     710 POLY   1 POL  CG    CG    0.000  1.000
     711 POLY   1 POL  CG    CG    0.000  1.000
     712 POLY   1 POL  CG    CG    0.000  1.000
     713 POLY   1 POL  CG    CG    0.000  1.000
     714 POLY   1 POL  CG    CG    0.000  1.000
     715 POLY   1 POL  CG    CG    0.000  1.000
     716 POLY   1 POL  CG    CG    0.000  1.000
     717 POLY   1 POL  CG    CG    0.000  1.000
     718 POLY   1 POL  CG    CG    0.000  1.000
     719 POLY   1 POL  CG    CG    0.000  1.000
     720 POLY   1 POL  CG    CG    0.000  1.000
     721 POLY   1 POL  CG    CG    0.000  1.000
     722 POLY   1 POL  CG    CG    0.000  1.000
     723 POLY   1 POL  CG    CG    0.000  1.000
     724 POLY   1 POL  CG    CG    0.000  1.000
     725 POLY   1 POL  CG    CG    0.000  1.000
     726 POLY   1 POL  CG    CG    0.000  1.000
     727 POLY   1 POL  CG    CG    0.000  1.000
     728 POLY   1 POL  CG    CG    0.000  1.000
     729 POLY   1 POL  CG    CG    0.000  1.000
     730 POLY   1 POL  CG    CG    0.000  1.000
     731 POLY   1 POL  CG    CG    0.000  1.000
     732 POLY   1 POL  CG    CG    0.000  1.000
     733 POLY   1 POL  CG    CG    0.000  1.000
     734 POLY   1 POL  CG    CG    0.000  1.000
     735 POLY   1 POL  CG    CG    0.000  1.000
     736 POLY   1 POL  CG    CG    0.000  1.000
     737 POLY   1 POL  CG    CG    0.000  1.000
     738 POLY   1 POL  CG    CG    0.000  1.000
     739 POLY   1 POL  CG    CG    0.000  1.000
     740 POLY   1 POL  CG    CG    0.000  1.000
     741 POLY   1 POL  CG    CG    0.000  1.000
     742 POLY   1 POL  CG    CG    0.000  1.000
     743 POLY   1 POL  CG    CG    0.000  1.000
     744 POLY   1 POL  CG    CG    0.000  1.000
     745 POLY   1 POL  CG    CG    0.000  1.000
     746 POLY   1 POL  CG    CG    0.000  1.000
     747 POLY   1 POL  CG    CG    0.000  1.000
     748 POLY   1 POL  CG    CG    0.000  1.000
     749 POLY   1 POL  CG    CG    0.000  1.000
     750 POLY   1 POL  CG    CG    0.000  1.000
     751 POLY   1 POL  CG    CG    0.000  1.000
     752 POLY   1 POL  CG    CG    0.000  1.000
     753 POLY   1 POL  CG    CG    0.000  1.000
     754 POLY   1 POL  CG    CG    0.000  1.000
     755 POLY   1 POL  CG    CG    0.000  1.000
     756 POLY   1 POL  CG    CG    0.000  1.000
     757 POLY   1 POL  CG    CG    0.000  1.000
     758 POLY   1 POL  CG    CG    0.000  1.000
     759 POLY   1 POL  CG    CG    0.000  1.000
     760 POLY   1 POL  CG    CG    0.000  1.000
     761 POLY   1 POL  CG    CG    0.000  1.000
     762 POLY   1 POL  CG    CG    0.000  1.000
     763 POLY   1 POL  CG    CG    0.000  1.000
     764 POLY   1 POL  CG    CG    0.000  1.000
     765 POLY   1 POL  CG    CG    0.000  1.000
     766 POLY   1 POL  CG    CG    0.000  1.000
     767 POLY   1 POL  CG    CG    0.000  1.000
     768 POLY   1 POL  CG    CG    0.000  1.000
     769 POLY   1 POL  CG    CG    0.000  1.000
     770 POLY   1 POL  CG    CG    0.000  1.000
     771 POLY   1 POL  CG    CG    0.000  1.000
     772 POLY   1 POL  CG    CG    0.000  1.000
     773 POLY   1 POL  CG    CG    0.000  1.000
     774 POLY   1 POL  CG    CG    0.000  1.000
     775 POLY   1 POL  CG    CG    0.000  1.000
     776 POLY   1 POL  CG    CG    0.000  1.000
     777 POLY   1 POL  CG    CG    0.000  1.000
     778 POLY   1 POL  CG    CG    0.000  1.000
     779 POLY   1 POL  CG    CG    0.000  1.000
     780 POLY   1 POL  CG    CG    0.000  1.000
     781 POLY   1 POL  CG    CG    0.000  1.000
     782 POLY   1 POL  CG    CG    0.000  1.000
     783 POLY   1 POL  CG    CG    0.000  1.000
     784 POLY   1 POL  CG    CG    0.000  1.000
     785 POLY   1 POL  CG    CG    0.000  1.000
     786 POLY   1 POL  CG    CG    0.000  1.000
     787 POLY   1 POL  CG    CG    0.000  1.000
     788 POLY   1 POL  CG    CG    0.000  1.000
     789 POLY   1 POL  CG    CG    0.000  1.000
     790 POLY   1 POL  CG    CG    0.000  1.000
     791 POLY   1 POL  CG    CG    0.000  1.000
     792 POLY   1 POL  CG    CG    0.000  1.000
     793 POLY   1 POL  CG    CG    0.000  1.000
     794 POLY   1 POL  CG    CG    0.000  1.000
     795 POLY   1 POL  CG    CG    0.000  1.000
     796 POLY   1 POL  CG    CG    0.000  1.000
     797 POLY   1 POL  CG    CG    0.000  1.000
     798 POLY   1 POL  CG    CG    0.000  1.000
     799 POLY   1 POL  CG    CG    0.000  1.000
     800 POLY   1 POL  CG    CG    0.000  1.000
     801 POLY   1 POL  CG    CG    0.000  1.000
     802 POLY   1 POL  CG    CG    0.000  1.000
     803 POLY   1 POL  CG    CG    0.000  1.000
     804 POLY   1 POL  CG    CG    0.000  1.000
     805 POLY   1 POL  CG    CG    0.000  1.000
     806 POLY   1 POL  CG    CG    0.000  1.000
     807 POLY   1 POL  CG    CG    0.000  1.000
     808 POLY   1 POL  CG    CG    0.000  1.000
     809 POLY   1 POL  CG    CG    0.000  1.000
     810 POLY   1 POL  CG    CG    0.000  1.000
     811 POLY   1 POL  CG    CG    0.000  1.000
     812 POLY   1 POL  CG    CG    0.000  1.000
     813 POLY   1 POL  CG    CG    0.000  1.000
     814 POLY   1 POL  CG    CG    0.000  1.000
     815 POLY   1 POL  CG    CG    0.000  1.000
     816 POLY   1 POL  CG    CG    0.000  1.000
     817 POLY   1 POL  CG    CG    0.000  1.000
     818 POLY   1 POL  CG    CG    0.000  1.000
     819 POLY   1 POL  CG    CG    0.000  1.000
     820 POLY   1 POL  CG    CG    0.000  1.000
     821 POLY   1 POL  CG    CG    0.000  1.000
     822 POLY   1 POL  CG    CG    0.000  1.000
     823 POLY   1 POL  CG    CG    0.000  1.000
     824 POLY   1 POL  CG    CG    0.000  1.000
     825 POLY   1 POL  CG    CG    0.000  1.000
     826 POLY   1 POL  CG    CG    0.000  1.000
     827 POLY   1 POL  CG    CG    0.000  1.000
     828 POLY   1 POL  CG    CG    0.000  1.000
     829 POLY   1 POL  CG    CG    0.000  1.000
     830 POLY   1 POL  CG    CG    0.000  1.000
     831 POLY   1 POL  CG    CG    0.000  1.000
     832 POLY   1 POL  CG    CG    0.000  1.000
     833 POLY   1 POL  CG    CG    0.000  1.000
     834 POLY   1 POL  CG    CG    0.000  1.000
     835 POLY   1 POL  CG    CG    0.000  1.000
     836 POLY   1 POL  CG    CG    0.000  1.000
     837 POLY   1 POL  CG    CG    0.000  1.000
     838 POLY   1 POL  CG    CG    0.000  1.000
     839 POLY   1 POL  CG    CG    0.000  1.000
     840 POLY   1 POL  CG    CG    0.000  1.000
     841 POLY   1 POL  CG    CG    0.000  1.000
     842 POLY   1 POL  CG    CG    0.000  1.000
     843 POLY   1 POL  CG    CG    0.000  1.000
     844 POLY   1 POL  CG    CG    0.000  1.000
     845 POLY   1 POL  CG    CG    0.000  1.000
     846 POLY   1 POL  CG    CG    0.000  1.000
     847 POLY   1 POL  CG    CG    0.000  1.000
     848 POLY   1 POL  CG    CG    0.000  1.000
     849 POLY   1 POL  CG    CG    0.000  1.000
     850 POLY   1 POL  CG    CG    0.000  1.000
     851 POLY   1 POL  CG    CG    0.000  1.000
     852 POLY   1 POL  CG    CG    0.000  1.000
     853 POLY   1 POL  CG    CG    0.000  1.000
     854 POLY   1 POL  CG    CG    0.000  1.000
     855 POLY   1 POL  CG    CG    0.000  1.000
     856 POLY   1 POL  CG    CG    0.000  1.000
     857 POLY   1 POL  CG    CG    0.000  1.000
     858 POLY   1 POL  CG    CG    0.000  1.000
     859 POLY   1 POL  CG    CG    0.000  1.000
     860 POLY   1 POL  CG    CG    0.000  1.000
     861 POLY   1 POL  CG    CG    0.000  1.000
     862 POLY   1 POL  CG    CG    0.000  1.000
     863 POLY   1 POL  CG    CG    0.000  1.000
     864 POLY   1 POL  CG    CG    0.000  1.000
     865 POLY   1 POL  CG    CG    0.000  1.000
     866 POLY   1 POL  CG    CG    0.000  1.000
     867 POLY   1 POL  CG    CG    0.000  1.000
     868 POLY   1 POL  CG    CG    0.000  1.000
     869 POLY   1 POL  CG    CG    0.000  1.000
     870 POLY   1 POL  CG    CG    0.000  1.000
     871 POLY   1 POL  CG    CG    0.000  1.000
     872 POLY   1 POL  CG    CG    0.000  1.000
     873 POLY   1 POL  CG    CG    0.000  1.000
     874 POLY   1 POL  CG    CG    0.000  1.000
     875 POLY   1 POL  CG    CG    0.000  1.000
     876 POLY   1 POL  CG    CG    0.000  1.000
     877 POLY   1 POL  CG    CG    0.000  1.000
     878 POLY   1 POL  CG    CG    0.000  1.000
     879 POLY   1 POL  CG    CG    0.000  1.000
     880 POLY   1 POL  CG    CG    0.000  1.000
     881 POLY   1 POL  CG    CG    0.000  1.000
     882 POLY   1 POL  CG    CG    0.000  1.000
     883 POLY   1 POL  CG    CG    0.000  1.000
     884 POLY   1 POL  CG    CG    0.000  1.000
     885 POLY   1 POL  CG    CG    0.000  1.000
     886 POLY   1 POL  CG    CG    0.000  1.000
     887 POLY   1 POL  CG    CG    0.000  1.000
     888 POLY   1 POL  CG    CG    0.000  1.000
     889 POLY   1 POL  CG    CG    0.000  1.000
     890 POLY   1 POL  CG    CG    0.000  1.000
     891 POLY   1 POL  CG    CG    0.000  1.000
     892 POLY   1 POL  CG    CG    0.000  1.000
     893 POLY   1 POL  CG    CG    0.000  1.000
     894 POLY   1 POL  CG    CG    0.000  1.000
     895 POLY   1 POL  CG    CG    0.000  1.000
     896 POLY   1 POL  CG    CG    0.000  1.000
     897 POLY   1 POL  CG    CG    0.000  1.000
     898 POLY   1 POL  CG    CG    0.000  1.000
     899 POLY   1 POL  CG    CG    0.000  1.000
     900 POLY   1 POL  CG    CG    0.000  1.000
     901 POLY   1 POL  CG    CG    0.000  1.000
     902 POLY   1 POL  CG    CG    0.000  1.000
     903 POLY   1 POL  CG    CG    0.000  1.000
     904 POLY   1 POL  CG    CG    0.000  1.000
     905 POLY   1 POL  CG    CG    0.000  1.000
     906 POLY   1 POL  CG    CG    0.000  1.000
     907 POLY   1 POL  CG    CG    0.000  1.000
     908 POLY   1 POL  CG    CG    0.000  1.000
     909 POLY   1 POL  CG    CG    0.000  1.000
     910 POLY   1 POL  CG    CG    0.000  1.000
     911 POLY   1 POL  CG    CG    0.000  1.000
     912 POLY   1 POL  CG    CG    0.000  1.000
     913 POLY   1 POL  CG    CG    0.000  1.000
     914 POLY   1 POL  CG    CG    0.000  1.000
     915 POLY   1 POL  CG    CG    0.000  1.000
     916 POLY   1 POL  CG    CG    0.000  1.000
     917 POLY   1 POL  CG    CG    0.000  1.000
     918 POLY   1 POL  CG    CG    0.000  1.000
     919 POLY   1 POL  CG    CG    0.000  1.000
     920 POLY   1 POL  CG    CG    0.000  1.000
     921 POLY   1 POL  CG    CG    0.000  1.000
     922 POLY   1 POL  CG    CG    0.000  1.000
     923 POLY   1 POL  CG    CG    0.000  1.000
     924 POLY   1 POL  CG    CG    0.000  1.000
     925 POLY   1 POL  CG    CG    0.000  1.000
     926 POLY   1 POL  CG    CG    0.000  1.000
     927 POLY   1 POL  CG    CG    0.000  1.000
     928 POLY   1 POL  CG    CG    0.000  1.000
     929 POLY   1 POL  CG    CG    0.000  1.000
     930 POLY   1 POL  CG    CG    0.000  1.000
     931 POLY   1 POL  CG    CG    0.000  1.000
     932 POLY   1 POL  CG    CG    0.000  1.000
     933 POLY   1 POL  CG    CG    0.000  1.000
     934 POLY   1 POL  CG    CG    0.000  1.000
     935 POLY   1 POL  CG    CG    0.000  1.000
     936 POLY   1 POL  CG    CG    0.000  1.000
     937 POLY   1 POL  CG    CG    0.000  1.000
     938 POLY   1 POL  CG    CG    0.000  1.000
     939 POLY   1 POL  CG    CG    0.000  1.000
     940 POLY   1 POL  CG    CG    0.000  1.000
     941 POLY   1 POL  CG    CG    0.000  1.000
     942 POLY   1 POL  CG    CG    0.000  1.000
     943 POLY   1 POL  CG    CG    0.000  1.000
     944 POLY   1 POL  CG    CG    0.000  1.000
     945 POLY   1 POL  CG    CG    0.000  1.000
     946 POLY   1 POL  CG    CG    0.000  1.000
     947 POLY   1 POL  CG    CG    0.000  1.000
     948 POLY   1 POL  CG    CG    0.000  1.000
     949 POLY   1 POL  CG    CG    0.000  1.000
     950 POLY   1 POL  CG    CG    0.000  1.000
     951 POLY   1 POL  CG    CG    0.000  1.000
     952 POLY   1 POL  CG    CG    0.000  1.000
     953 POLY   1 POL  CG    CG    0.000  1.000
     954 POLY   1 POL  CG    CG    0.000  1.000
     955 POLY   1 POL  CG    CG    0.000  1.000
     956 POLY   1 POL  CG    CG    0.000  1.000
     957 POLY   1 POL  CG    CG    0.000  1.000
     958 POLY   1 POL  CG    CG    0.000  1.000
     959 POLY   1 POL  CG    CG    0.000  1.000
     960 POLY   1 POL  CG    CG    0.000  1.000
     961 POLY   1 POL  CG    CG    0.000  1.000
     962 POLY   1 POL  CG    CG    0.000  1.000
     963 POLY   1 POL  CG    CG    0.000  1.000
     964 POLY   1 POL  CG    CG    0.000  1.000
     965 POLY   1 POL  CG    CG    0.000  1.000
     966 POLY   1 POL  CG    CG    0.000  1.000
     967 POLY   1 POL  CG    CG    0.000  1.000
     968 POLY   1 POL  CG    CG    0.000  1.000
     969 POLY   1 POL  CG    CG    0.000  1.000
     970 POLY   1 POL  CG    CG    0.000  1.000
     971 POLY   1 POL  CG    CG    0.000  1.000
     972 POLY   1 POL  CG    CG    0.000  1.000
     973 POLY   1 POL  CG    CG    0.000  1.000
     974 POLY   1 POL  CG    CG    0.000  1.000
     975 POLY   1 POL  CG    CG    0.000  1.000
     976 POLY   1 POL  CG    CG    0.000  1.000
     977 POLY   1 POL  CG    CG    0.000  1.000
     978 POLY   1 POL  CG    CG    0.000  1.000
     979 POLY   1 POL  CG    CG    0.000  1.000
     980 POLY   1 POL  CG    CG    0.000  1.000
     981 POLY   1 POL  CG    CG    0.000  1.000
     982 POLY   1 POL  CG    CG    0.000  1.000
     983 POLY   1 POL  CG    CG    0.000  1.000
     984 POLY   1 POL  CG    CG    0.000  1.000
     985 POLY   1 POL  CG    CG    0.000  1.000
     986 POLY   1 POL  CG    CG    0.000  1.000
     987 POLY   1 POL  CG    CG    0.000  1.000
     988 POLY   1 POL  CG    CG    0.000  1.000
     989 POLY   1 POL  CG    CG    0.000  1.000
     990 POLY   1 POL  CG    CG    0.000  1.000
     991 POLY   1 POL  CG    CG    0.000  1.000
     992 POLY   1 POL  CG    CG    0.000  1.000
     993 POLY   1 POL  CG    CG    0.000  1.000
     994 POLY   1 POL  CG    CG    0.000  1.000
     995 POLY   1 POL  CG    CG    0.000  1.000
     996 POLY   1 POL  CG    CG    0.000  1.000
     997 POLY   1 POL  CG    CG    0.000  1.000
     998 POLY   1 POL  CG    CG    0.000  1.000
     999 POLY   1 POL  CG    CG    0.000  1.000
    1000 POLY   1 POL  CG    CG    0.000  1.000
    1001 POLY   1 POL  CG    CG    0.000  1.000
    1002 POLY   1 POL  CG    CG    0.000  1.000
    1003 POLY   1 POL  CG    CG    0.000  1.000
    1004 POLY   1 POL  CG    CG    0.000  1.000
    1005 POLY   1 POL  CG    CG    0.000  1.000
    1006 POLY   1 POL  CG    CG    0.000  1.000
    1007 POLY   1 POL  CG    CG    0.000  1.000
    1008 POLY   1 POL  CG    CG    0.000  1.000
    1009 POLY   1 POL  CG    CG    0.000  1.000
    1010 POLY   1 POL  CG    CG    0.000  1.000
    1011 POLY   1 POL  CG    CG    0.000  1.000
    1012 POLY   1 POL  CG    CG    0.000  1.000
    1013 POLY   1 POL  CG    CG    0.000  1.000
    1014 POLY   1 POL  CG    CG    0.000  1.000
    1015 POLY   1 POL  CG    CG    0.000  1.000
    1016 POLY   1 POL  CG    CG    0.000  1.000
    1017 POLY   1 POL  CG    CG    0.000  1.000
    1018 POLY   1 POL  CG    CG    0.000  1.000
    1019 POLY   1 POL  CG    CG    0.000  1.000
    1020 POLY   1 POL  CG    CG    0.000  1.000
    1021 POLY   1 POL  CG    CG    0.000  1.000
    1022 POLY   1 POL  CG    CG    0.000  1.000
    1023 POLY   1 POL  CG    CG    0.000  1.000
    1024 POLY   1 POL  CG    CG    0.000  1.000
    1025 POLY   1 POL  CG    CG    0.000  1.000
    1026 POLY   1 POL  CG    CG    0.000  1.000
    1027 POLY   1 POL  CG    CG    0.000  1.000
    1028 POLY   1 POL  CG    CG    0.000  1.000
    1029 POLY   1 POL  CG    CG    0.000  1.000
    1030 POLY   1 POL  CG    CG    0.000  1.000
    1031 POLY   1 POL  CG    CG    0.000  1.000
    1032 POLY   1 POL  CG    CG    0.000  1.000
    1033 POLY   1 POL  CG    CG    0.000  1.000
    1034 POLY   1 POL  CG    CG    0.000  1.000
    1035 POLY   1 POL  CG    CG    0.000  1.000
    1036 POLY   1 POL  CG    CG    0.000  1.000
    1037 POLY   1 POL  CG    CG    0.000  1.000
    1038 POLY   1 POL  CG    CG    0.000  1.000
    1039 POLY   1 POL  CG    CG    0.000  1.000
    1040 POLY   1 POL  CG    CG    0.000  1.000
    1041 POLY   1 POL  CG    CG    0.000  1.000
    1042 POLY   1 POL  CG    CG    0.000  1.000
    1043 POLY   1 POL  CG    CG    0.000  1.000
    1044 POLY   1 POL  CG    CG    0.000  1.000
    1045 POLY   1 POL  CG    CG    0.000  1.000
    1046 POLY   1 POL  CG    CG    0.000  1.000
    1047 POLY   1 POL  CG    CG    0.000  1.000
    1048 POLY   1 POL  CG    CG    0.000  1.000
    1049 POLY   1 POL  CG    CG    0.000  1.000
    1050 POLY   1 POL  CG    CG    0.000  1.000
    1051 POLY   1 POL  CG    CG    0.000  1.000
    1052 POLY   1 POL  CG    CG    0.000  1.000
    1053 POLY   1 POL  CG    CG    0.000  1.000
    1054 POLY   1 POL  CG    CG    0.000  1.000
    1055 POLY   1 POL  CG    CG    0.000  1.000
    1056 POLY   1 POL  CG    CG    0.000  1.000
    1057 POLY   1 POL  CG    CG    0.000  1.000
    1058 POLY   1 POL  CG    CG    0.000  1.000
    1059 POLY   1 POL  CG    CG    0.000  1.000
    1060 POLY   1 POL  CG    CG    0.000  1.000
    1061 POLY   1 POL  CG    CG    0.000  1.000
    1062 POLY   1 POL  CG    CG    0.000  1.000
    1063 POLY   1 POL  CG    CG    0.000  1.000
    1064 POLY   1 POL  CG    CG    0.000  1.000
    1065 POLY   1 POL  CG    CG    0.000  1.000
    1066 POLY   1 POL  CG    CG    0.000  1.000
    1067 POLY   1 POL  CG    CG    0.000  1.000
    1068 POLY   1 POL  CG    CG    0.000  1.000
    1069 POLY   1 POL  CG    CG    0.000  1.000
    1070 POLY   1 POL  CG    CG    0.000  1.000
    1071 POLY   1 POL  CG    CG    0.000  1.000
    1072 POLY   1 POL  CG    CG    0.000  1.000
    1073 POLY   1 POL  CG    CG    0.000  1.000
    1074 POLY   1 POL  CG    CG    0.000  1.000
    1075 POLY   1 POL  CG    CG    0.000  1.000
    1076 POLY   1 POL  CG    CG    0.000  1.000
    1077 POLY   1 POL  CG    CG    0.000  1.000
    1078 POLY   1 POL  CG    CG    0.000  1.000
    1079 POLY   1 POL  CG    CG    0.000  1.000
    1080 POLY   1 POL  CG    CG    0.000  1.000
    1081 POLY   1 POL  CG    CG    0.000  1.000
    1082 POLY   1 POL  CG    CG    0.000  1.000
    1083 POLY   1 POL  CG    CG    0.000  1.000
    1084 POLY   1 POL  CG    CG    0.000  1.000
    1085 POLY   1 POL  CG    CG    0.000  1.000
    1086 POLY   1 POL  CG    CG    0.000  1.000
    1087 POLY   1 POL  CG    CG    0.000  1.000
    1088 POLY   1 POL  CG    CG    0.000  1.000
    1089 POLY   1 POL  CG    CG    0.000  1.000
    1090 POLY   1 POL  CG    CG    0.000  1.000
    1091 POLY   1 POL  CG    CG    0.000  1.000
    1092 POLY   1 POL  CG    CG    0.000  1.000
    1093 POLY   1 POL  CG    CG    0.000  1.000
    1094 POLY   1 POL  CG    CG    0.000  1.000
    1095 POLY   1 POL  CG    CG    0.000  1.000
    1096 POLY   1 POL  CG    CG    0.000  1.000
    1097 POLY   1 POL  CG    CG    0.000  1.000
    1098 POLY   1 POL  CG    CG    0.000  1.000
    1099 POLY   1 POL  CG    CG    0.000  1.000
    1100 POLY   1 POL  CG    CG    0.000  1.000
    1101 POLY   1 POL  CG    CG    0.000  1.000
    1102 POLY   1 POL  CG    CG    0.000  1.000
    1103 POLY   1 POL  CG    CG    0.000  1.000
    1104 POLY   1 POL  CG    CG    0.000  1.000
    1105 POLY   1 POL  CG    CG    0.000  1.000
    1106 POLY   1 POL  CG    CG    0.000  1.000
    1107 POLY   1 POL  CG    CG    0.000  1.000
    1108 POLY   1 POL  CG    CG    0.000  1.000
    1109 POLY   1 POL  CG    CG    0.000  1.000
    1110 POLY   1 POL  CG    CG    0.000  1.000
    1111 POLY   1 POL  CG    CG    0.000  1.000
    1112 POLY   1 POL  CG    CG    0.000  1.000
    1113 POLY   1 POL  CG    CG    0.000  1.000
    1114 POLY   1 POL  CG    CG    0.000  1.000
    1115 POLY   1 POL  CG    CG    0.000  1.000
    1116 POLY   1 POL  CG    CG    0.000  1.000
    1117 POLY   1 POL  CG    CG    0.000  1.000
    1118 POLY   1 POL  CG    CG    0.000  1.000
    1119 POLY   1 POL  CG    CG    0.000  1.000
    1120 POLY   1 POL  CG    CG    0.000  1.000
    1121 POLY   1 POL  CG    CG    0.000  1.000
    1122 POLY   1 POL  CG    CG    0.000  1.000
    1123 POLY   1 POL  CG    CG    0.000  1.000
    1124 POLY   1 POL  CG    CG    0.000  1.000
    1125 POLY   1 POL  CG    CG    0.000  1.000
    1126 POLY   1 POL  CG    CG    0.000  1.000
    1127 POLY   1 POL  CG    CG    0.000  1.000
    1128 POLY   1 POL  CG    CG    0.000  1.000
    1129 POLY   1 POL  CG    CG    0.000  1.000
    1130 POLY   1 POL  CG    CG    0.000  1.000
    1131 POLY   1 POL  CG    CG    0.000  1.000
    1132 POLY   1 POL  CG    CG    0.000  1.000
    1133 POLY   1 POL  CG    CG    0.000  1.000
    1134 POLY   1 POL  CG    CG    0.000  1.000
    1135 POLY   1 POL  CG    CG    0.000  1.000
    1136 POLY   1 POL  CG    CG    0.000  1.000
    1137 POLY   1 POL  CG    CG    0.000  1.000
    1138 POLY   1 POL  CG    CG    0.000  1.000
    1139 POLY   1 POL  CG    CG    0.000  1.000
    1140 POLY   1 POL  CG    CG    0.000  1.000
    1141 POLY   1 POL  CG    CG    0.000  1.000
    1142 POLY   1 POL  CG    CG    0.000  1.000
    1143 POLY   1 POL  CG    CG    0.000  1.000
    1144 POLY   1 POL  CG    CG    0.000  1.000
    1145 POLY   1 POL  CG    CG    0.000  1.000
    1146 POLY   1 POL  CG    CG    0.000  1.000
    1147 POLY   1 POL  CG    CG    0.000  1.000
    1148 POLY   1 POL  CG    CG    0.000  1.000
    1149 POLY   1 POL  CG    CG    0.000  1.000
    1150 POLY   1 POL  CG    CG    0.000  1.000
    1151 POLY   1 POL  CG    CG    0.000  1.000
    1152 POLY   1 POL  CG    CG    0.000  1.000
    1153 POLY   1 POL  CG    CG    0.000  1.000
    1154 POLY   1 POL  CG    CG    0.000  1.000
    1155 POLY   1 POL  CG    CG    0.000  1.000
    1156 POLY   1 POL  CG    CG    0.000  1.000
    1157 POLY   1 POL  CG    CG    0.000  1.000
    1158 POLY   1 POL  CG    CG    0.000  1.000
    1159 POLY   1 POL  CG    CG    0.000  1.000
    1160 POLY   1 POL  CG    CG    0.000  1.000
    1161 POLY   1 POL  CG    CG    0.000  1.000
    1162 POLY   1 POL  CG    CG    0.000  1.000
    1163 POLY   1 POL  CG    CG    0.000  1.000
    1164 POLY   1 POL  CG    CG    0.000  1.000
    1165 POLY   1 POL  CG    CG    0.000  1.000
    1166 POLY   1 POL  CG    CG    0.000  1.000
    1167 POLY   1 POL  CG    CG    0.000  1.000
    1168 POLY   1 POL  CG    CG    0.000  1.000
    1169 POLY   1 POL  CG    CG    0.000  1.000
    1170 POLY   1 POL  CG    CG    0.000  1.000
    1171 POLY   1 POL  CG    CG    0.000  1.000
    1172 POLY   1 POL  CG    CG    0.000  1.000
    1173 POLY   1 POL  CG    CG    0.000  1.000
    1174 POLY   1 POL  CG    CG    0.000  1.000
    1175 POLY   1 POL  CG    CG    0.000  1.000
    1176 POLY   1 POL  CG    CG    0.000  1.000
    1177 POLY   1 POL  CG    CG    0.000  1.000
    1178 POLY   1 POL  CG    CG    0.000  1.000
    1179 POLY   1 POL  CG    CG    0.000  1.000
    1180 POLY   1 POL  CG    CG    0.000  1.000
    1181 POLY   1 POL  CG    CG    0.000  1.000
    1182 POLY   1 POL  CG    CG    0.000  1.000
    1183 POLY   1 POL  CG    CG    0.000  1.000
    1184 POLY   1 POL  CG    CG    0.000  1.000
    1185 POLY   1 POL  CG    CG    0.000  1.000
    1186 POLY   1 POL  CG    CG    0.000  1.000
    1187 POLY   1 POL  CG    CG    0.000  1.000
    1188 POLY   1 POL  CG    CG    0.000  1.000
    1189 POLY   1 POL  CG    CG    0.000  1.000
    1190 POLY   1 POL  CG    CG    0.000  1.000
    1191 POLY   1 POL  CG    CG    0.000  1.000
    1192 POLY   1 POL  CG    CG    0.000  1.000
    1193 POLY   1 POL  CG    CG    0.000  1.000
    1194 POLY   1 POL  CG    CG    0.000  1.000
    1195 POLY   1 POL  CG    CG    0.000  1.000
    1196 POLY   1 POL  CG    CG    0.000  1.000
    1197 POLY   1 POL  CG    CG    0.000  1.000
    1198 POLY   1 POL  CG    CG    0.000  1.000
    1199 POLY   1 POL  CG    CG    0.000  1.000
    1200 POLY   1 POL  CG    CG    0.000  1.000
    1201 POLY   1 POL  CG    CG    0.000  1.000
    1202 POLY   1 POL  CG    CG    0.000  1.000
    1203 POLY   1 POL  CG    CG    0.000  1.000
    1204 POLY   1 POL  CG    CG    0.000  1.000
    1205 POLY   1 POL  CG    CG    0.000  1.000
    1206 POLY   1 POL  CG    CG    0.000  1.000
    1207 POLY   1 POL  CG    CG    0.000  1.000
    1208 POLY   1 POL  CG    CG    0.000  1.000
    1209 POLY   1 POL  CG    CG    0.000  1.000
    1210 POLY   1 POL  CG    CG    0.000  1.000
    1211 POLY   1 POL  CG    CG    0.000  1.000
    1212 POLY   1 POL  CG    CG    0.000  1.000
    1213 POLY   1 POL  CG    CG    0.000  1.000
    1214 POLY   1 POL  CG    CG    0.000  1.000
    1215 POLY   1 POL  CG    CG    0.000  1.000
    1216 POLY   1 POL  CG    CG    0.000  1.000
    1217 POLY   1 POL  CG    CG    0.000  1.000
    1218 POLY   1 POL  CG    CG    0.000  1.000
    1219 POLY   1 POL  CG    CG    0.000  1.000
    1220 POLY   1 POL  CG    CG    0.000  1.000
    1221 POLY   1 POL  CG    CG    0.000  1.000
    1222 POLY   1 POL  CG    CG    0.000  1.000
    1223 POLY   1 POL  CG    CG    0.000  1.000
    1224 POLY   1 POL  CG    CG    0.000  1.000
    1225 POLY   1 POL  CG    CG    0.000  1.000
    1226 POLY   1 POL  CG    CG    0.000  1.000
    1227 POLY   1 POL  CG    CG    0.000  1.000
    1228 POLY   1 POL  CG    CG    0.000  1.000
    1229 POLY   1 POL  CG    CG    0.000  1.000
    1230 POLY   1 POL  CG    CG    0.000  1.000
    1231 POLY   1 POL  CG    CG    0.000  1.000
    1232 POLY   1 POL  CG    CG    0.000  1.000
    1233 POLY   1 POL  CG    CG    0.000  1.000
    1234 POLY   1 POL  CG    CG    0.000  1.000
    1235 POLY   1 POL  CG    CG    0.000  1.000
    1236 POLY   1 POL  CG    CG    0.000  1.000
    1237 POLY   1 POL  CG    CG    0.000  1.000
    1238 POLY   1 POL  CG    CG    0.000  1.000
    1239 POLY   1 POL  CG    CG    0.000  1.000
    1240 POLY   1 POL  CG    CG    0.000  1.000
    1241 POLY   1 POL  CG    CG    0.000  1.000
    1242 POLY   1 POL  CG    CG    0.000  1.000
    1243 POLY   1 POL  CG    CG    0.000  1.000
    1244 POLY   1 POL  CG    CG    0.000  1.000
    1245 POLY   1 POL  CG    CG    0.000  1.000
    1246 POLY   1 POL  CG    CG    0.000  1.000
    1247 POLY   1 POL  CG    CG    0.000  1.000
    1248 POLY   1 POL  CG    CG    0.000  1.000
    1249 POLY   1 POL  CG    CG    0.000  1.000
    1250 POLY   1 POL  CG    CG    0.000  1.000
    1251 POLY   1 POL  CG    CG    0.000  1.000
    1252 POLY   1 POL  CG    CG    0.000  1.000
    1253 POLY   1 POL  CG    CG    0.000  1.000
    1254 POLY   1 POL  CG    CG    0.000  1.000
    1255 POLY   1 POL  CG    CG    0.000  1.000
    1256 POLY   1 POL  CG    CG    0.000  1.000
    1257 POLY   1 POL  CG    CG    0.000  1.000
    1258 POLY   1 POL  CG    CG    0.000  1.000
    1259 POLY   1 POL  CG    CG    0.000  1.000
    1260 POLY   1 POL  CG    CG    0.000  1.000
    1261 POLY   1 POL  CG    CG    0.000  1.000
    1262 POLY   1 POL  CG    CG    0.000  1.000
    1263 POLY   1 POL  CG    CG    0.000  1.000
    1264 POLY   1 POL  CG    CG    0.000  1.000
    1265 POLY   1 POL  CG    CG    0.000  1.000
    1266 POLY   1 POL  CG    CG    0.000  1.000
    1267 POLY   1 POL  CG    CG    0.000  1.000
    1268 POLY   1 POL  CG    CG    0.000  1.000
    1269 POLY   1 POL  CG    CG    0.000  1.000
    1270 POLY   1 POL  CG    CG    0.000  1.000
    1271 POLY   1 POL  CG    CG    0.000  1.000
    1272 POLY   1 POL  CG    CG    0.000  1.000
    1273 POLY   1 POL  CG    CG    0.000  1.000
    1274 POLY   1 POL  CG    CG    0.000  1.000
    1275 POLY   1 POL  CG    CG    0.000  1.000
    1276 POLY   1 POL  CG    CG    0.000  1.000
    1277 POLY   1 POL  CG    CG    0.000  1.000
    1278 POLY   1 POL  CG    CG    0.000  1.000
    1279 POLY   1 POL  CG    CG    0.000  1.000
    1280 POLY   1 POL  CG    CG    0.000  1.000
    1281 POLY   1 POL  CG    CG    0.000  1.000
    1282 POLY   1 POL  CG    CG    0.000  1.000
    1283 POLY   1 POL  CG    CG    0.000  1.000
    1284 POLY   1 POL  CG    CG    0.000  1.000
    1285 POLY   1 POL  CG    CG    0.000  1.000
    1286 POLY   1 POL  CG    CG    0.000  1.000
    1287 POLY   1 POL  CG    CG    0.000  1.000
    1288 POLY   1 POL  CG    CG    0.000  1.000
    1289 POLY   1 POL  CG    CG    0.000  1.000
    1290 POLY   1 POL  CG    CG    0.000  1.000
    1291 POLY   1 POL  CG    CG    0.000  1.000
    1292 POLY   1 POL  CG    CG    0.000  1.000
    1293 POLY   1 POL  CG    CG    0.000  1.000
    1294 POLY   1 POL  CG    CG    0.000  1.000
    1295 POLY   1 POL  CG    CG    0.000  1.000
    1296 POLY   1 POL  CG    CG    0.000  1.000
    1297 POLY   1 POL  CG    CG    0.000  1.000
    1298 POLY   1 POL  CG    CG    0.000  1.000
    1299 POLY   1 POL  CG    CG    0.000  1.000
    1300 POLY   1 POL  CG    CG    0.000  1.000
    1301 POLY   1 POL  CG    CG    0.000  1.000
    1302 POLY   1 POL  CG    CG    0.000  1.000
    1303 POLY   1 POL  CG    CG    0.000  1.000
    1304 POLY   1 POL  CG    CG    0.000  1.000
    1305 POLY   1 POL  CG    CG    0.000  1.000
    1306 POLY   1 POL  CG    CG    0.000  1.000
    1307 POLY   1 POL  CG    CG    0.000  1.000
    1308 POLY   1 POL  CG    CG    0.000  1.000
    1309 POLY   1 POL  CG    CG    0.000  1.000
    1310 POLY   1 POL  CG    CG    0.000  1.000
    1311 POLY   1 POL  CG    CG    0.000  1.000
    1312 POLY   1 POL  CG    CG    0.000  1.000
    1313 POLY   1 POL  CG    CG    0.000  1.000
    1314 POLY   1 POL  CG    CG    0.000  1.000
    1315 POLY   1 POL  CG    CG    0.000  1.000
    1316 POLY   1 POL  CG    CG    0.000  1.000
    1317 POLY   1 POL  CG    CG    0.000  1.000
    1318 POLY   1 POL  CG    CG    0.000  1.000
    1319 POLY   1 POL  CG    CG    0.000  1.000
    1320 POLY   1 POL  CG    CG    0.000  1.000
    1321 POLY   1 POL  CG    CG    0.000  1.000
    1322 POLY   1 POL  CG    CG    0.000  1.000
    1323 POLY   1 POL  CG    CG    0.000  1.000
    1324 POLY   1 POL  CG    CG    0.000  1.000
    1325 POLY   1 POL  CG    CG    0.000  1.000
    1326 POLY   1 POL  CG    CG    0.000  1.000
    1327 POLY   1 POL  CG    CG    0.000  1.000
    1328 POLY   1 POL  CG    CG    0.000  1.000
    1329 POLY   1 POL  CG    CG    0.000  1.000
    1330 POLY   1 POL  CG    CG    0.000  1.000
    1331 POLY   1 POL  CG    CG    0.000  1.000
    1332 POLY   1 POL  CG    CG    0.000  1.000
    1333 POLY   1 POL  CG    CG    0.000  1.000
    1334 POLY   1 POL  CG    CG    0.000  1.000
    1335 POLY   1 POL  CG    CG    0.000  1.000
    1336 POLY   1 POL  CG    CG    0.000  1.000
    1337 POLY   1 POL  CG    CG    0.000  1.000
    1338 POLY   1 POL  CG    CG    0.000  1.000
    1339 POLY   1 POL  CG    CG    0.000  1.000
    1340 POLY   1 POL  CG    CG    0.000  1.000
    1341 POLY   1 POL  CG    CG    0.000  1.000
    1342 POLY   1 POL  CG    CG    0.000  1.000
    1343 POLY   1 POL  CG    CG    0.000  1.000
    1344 POLY   1 POL  CG    CG    0.000  1.000
    1345 POLY   1 POL  CG    CG    0.000  1.000
    1346 POLY   1 POL  CG    CG    0.000  1.000
    1347 POLY   1 POL  CG    CG    0.000  1.000
    1348 POLY   1 POL  CG    CG    0.000  1.000
    1349 POLY   1 POL  CG    CG    0.000  1.000
    1350 POLY   1 POL  CG    CG    0.000  1.000
    1351 POLY   1 POL  CG    CG    0.000  1.000
    1352 POLY   1 POL  CG    CG    0.000  1.000
    1353 POLY   1 POL  CG    CG    0.000  1.000
    1354 POLY   1 POL  CG    CG    0.000  1.000
    1355 POLY   1 POL  CG    CG    0.000  1.000
    1356 POLY   1 POL  CG    CG    0.000  1.000
    1357 POLY   1 POL  CG    CG    0.000  1.000
    1358 POLY   1 POL  CG    CG    0.000  1.000
    1359 POLY   1 POL  CG    CG    0.000  1.000
    1360 POLY   1 POL  CG    CG    0.000  1.000
    1361 POLY   1 POL  CG    CG    0.000  1.000
    1362 POLY   1 POL  CG    CG    0.000  1.000
    1363 POLY   1 POL  CG    CG    0.000  1.000
    1364 POLY   1 POL  CG    CG    0.000  1.000
    1365 POLY   1 POL  CG    CG    0.000  1.000
    1366 POLY   1 POL  CG    CG    0.000  1.000
    1367 POLY   1 POL  CG    CG    0.000  1.000
    1368 POLY   1 POL  CG    CG    0.000  1.000
    1369 POLY   1 POL  CG    CG    0.000  1.000
    1370 POLY   1 POL  CG    CG    0.000  1.000
    1371 POLY   1 POL  CG    CG    0.000  1.000
    1372 POLY   1 POL  CG    CG    0.000  1.000
    1373 POLY   1 POL  CG    CG    0.000  1.000
    1374 POLY   1 POL  CG    CG    0.000  1.000
    1375 POLY   1 POL  CG    CG    0.000  1.000
    1376 POLY   1 POL  CG    CG    0.000  1.000
    1377 POLY   1 POL  CG    CG    0.000  1.000
    1378 POLY   1 POL  CG    CG    0.000  1.000
    1379 POLY   1 POL  CG    CG    0.000  1.000
    1380 POLY   1 POL  CG    CG    0.000  1.000
    1381 POLY   1 POL  CG    CG    0.000  1.000
    1382 POLY   1 POL  CG    CG    0.000  1.000
    1383 POLY   1 POL  CG    CG    0.000  1.000
    1384 POLY   1 POL  CG    CG    0.000  1.000
    1385 POLY   1 POL  CG    CG    0.000  1.000
    1386 POLY   1 POL  CG    CG    0.000  1.000
    1387 POLY   1 POL  CG    CG    0.000  1.000
    1388 POLY   1 POL  CG    CG    0.000  1.000
    1389 POLY   1 POL  CG    CG    0.000  1.000
    1390 POLY   1 POL  CG    CG    0.000  1.000
    1391 POLY   1 POL  CG    CG    0.000  1.000
    1392 POLY   1 POL  CG    CG    0.000  1.000
    1393 POLY   1 POL  CG    CG    0.000  1.000
    1394 POLY   1 POL  CG    CG    0.000  1.000
    1395 POLY   1 POL  CG    CG    0.000  1.000
    1396 POLY   1 POL  CG    CG    0.000  1.000
    1397 POLY   1 POL  CG    CG    0.000  1.000
    1398 POLY   1 POL  CG    CG    0.000  1.000
    1399 POLY   1 POL  CG    CG    0.000  1.000
    1400 POLY   1 POL  CG    CG    0.000  1.000
    1401 POLY   1 POL  CG    CG    0.000  1.000
    1402 POLY   1 POL  CG    CG    0.000  1.000
    1403 POLY   1 POL  CG    CG    0.000  1.000
    1404 POLY   1 POL  CG    CG    0.000  1.000
    1405 POLY   1 POL  CG    CG    0.000  1.000
    1406 POLY   1 POL  CG    CG    0.000  1.000
    1407 POLY   1 POL  CG    CG    0.000  1.000
    1408 POLY   1 POL  CG    CG    0.000  1.000
    1409 POLY   1 POL  CG    CG    0.000  1.000
    1410 POLY   1 POL  CG    CG    0.000  1.000
    1411 POLY   1 POL  CG    CG    0.000  1.000
    1412 POLY   1 POL  CG    CG    0.000  1.000
    1413 POLY   1 POL  CG    CG    0.000  1.000
    1414 POLY   1 POL  CG    CG    0.000  1.000
    1415 POLY   1 POL  CG    CG    0.000  1.000
    1416 POLY   1 POL  CG    CG    0.000  1.000
    1417 POLY   1 POL  CG    CG    0.000  1.000
    1418 POLY   1 POL  CG    CG    0.000  1.000
    1419 POLY   1 POL  CG    CG    0.000  1.000
    1420 POLY   1 POL  CG    CG    0.000  1.000
    1421 POLY   1 POL  CG    CG    0.000  1.000
    1422 POLY   1 POL  CG    CG    0.000  1.000
    1423 POLY   1 POL  CG    CG    0.000  1.000
    1424 POLY   1 POL  CG    CG    0.000  1.000
    1425 POLY   1 POL  CG    CG    0.000  1.000
    1426 POLY   1 POL  CG    CG    0.000  1.000
    1427 POLY   1 POL  CG    CG    0.000  1.000
    1428 POLY   1 POL  CG    CG    0.000  1.000
    1429 POLY   1 POL  CG    CG    0.000  1.000
    1430 POLY   1 POL  CG    CG    0.000  1.000
    1431 POLY   1 POL  CG    CG    0.000  1.000
    1432 POLY   1 POL  CG    CG    0.000  1.000
    1433 POLY   1 POL  CG    CG    0.000  1.000
    1434 POLY   1 POL  CG    CG    0.000  1.000
    1435 POLY   1 POL  CG    CG    0.000  1.000
    1436 POLY   1 POL  CG    CG    0.000  1.000
    1437 POLY   1 POL  CG    CG    0.000  1.000
    1438 POLY   1 POL  CG    CG    0.000  1.000
    1439 POLY   1 POL  CG    CG    0.000  1.000
    1440 POLY   1 POL  CG    CG    0.000  1.000
    1441 POLY   1 POL  CG    CG    0.000  1.000
    1442 POLY   1 POL  CG    CG    0.000  1.000
    1443 POLY   1 POL  CG    CG    0.000  1.000
    1444 POLY   1 POL  CG    CG    0.000  1.000
    1445 POLY   1 POL  CG    CG    0.000  1.000
    1446 POLY   1 POL  CG    CG    0.000  1.000
    1447 POLY   1 POL  CG    CG    0.000  1.000
    1448 POLY   1 POL  CG    CG    0.000  1.000
    1449 POLY   1 POL  CG    CG    0.000  1.000
    1450 POLY   1 POL  CG    CG    0.000  1.000
    1451 POLY   1 POL  CG    CG    0.000  1.000
    1452 POLY   1 POL  CG    CG    0.000  1.000
    1453 POLY   1 POL  CG    CG    0.000  1.000
    1454 POLY   1 POL  CG    CG    0.000  1.000
    1455 POLY   1 POL  CG    CG    0.000  1.000
    1456 POLY   1 POL  CG    CG    0.000  1.000
    1457 POLY   1 POL  CG    CG    0.000  1.000
    1458 POLY   1 POL  CG    CG    0.000  1.000
    1459 POLY   1 POL  CG    CG    0.000  1.000
    1460 POLY   1 POL  CG    CG    0.000  1.000
    1461 POLY   1 POL  CG    CG    0.000  1.000
    1462 POLY   1 POL  CG    CG    0.000  1.000
    1463 POLY   1 POL  CG    CG    0.000  1.000
    1464 POLY   1 POL  CG    CG    0.000  1.000
    1465 POLY   1 POL  CG    CG    0.000  1.000
    1466 POLY   1 POL  CG    CG    0.000  1.000
    1467 POLY   1 POL  CG    CG    0.000  1.000
    1468 POLY   1 POL  CG    CG    0.000  1.000
    1469 POLY   1 POL  CG    CG    0.000  1.000
    1470 POLY   1 POL  CG    CG    0.000  1.000
    1471 POLY   1 POL  CG    CG    0.000  1.000
    1472 POLY   1 POL  CG    CG    0.000  1.000
    1473 POLY   1 POL  CG    CG    0.000  1.000
    1474 POLY   1 POL  CG    CG    0.000  1.000
    1475 POLY   1 POL  CG    CG    0.000  1.000
    1476 POLY   1 POL  CG    CG    0.000  1.000
    1477 POLY   1 POL  CG    CG    0.000  1.000
    1478 POLY   1 POL  CG    CG    0.000  1.000
    1479 POLY   1 POL  CG    CG    0.000  1.000
    1480 POLY   1 POL  CG    CG    0.000  1.000
    1481 POLY   1 POL  CG    CG    0.000  1.000
    1482 POLY   1 POL  CG    CG    0.000  1.000
    1483 POLY   1 POL  CG    CG    0.000  1.000
    1484 POLY   1 POL  CG    CG    0.000  1.000
    1485 POLY   1 POL  CG    CG    0.000  1.000
    1486 POLY   1 POL  CG    CG    0.000  1.000
    1487 POLY   1 POL  CG    CG    0.000  1.000
    1488 POLY   1 POL  CG    CG    0.000  1.000
    1489 POLY   1 POL  CG    CG    0.000  1.000
    1490 POLY   1 POL  CG    CG    0.000  1.000
    1491 POLY   1 POL  CG    CG    0.000  1.000
    1492 POLY   1 POL  CG    CG    0.000  1.000
    1493 POLY   1 POL  CG    CG    0.000  1.000
    1494 POLY   1 POL  CG    CG    0.000  1.000
    1495 POLY   1 POL  CG    CG    0.000  1.000
    1496 POLY   1 POL  CG    CG    0.000  1.000
    1497 POLY   1 POL  CG    CG    0.000  1.000
    1498 POLY   1 POL  CG    CG    0.000  1.000
    1499 POLY   1 POL  CG    CG    0.000  1.000
    1500 POLY   1 POL  CG    CG    0.000  1.000
    1501 POLY   1 POL  CG    CG    0.000  1.000
    1502 POLY   1 POL  CG    CG    0.000  1.000
    1503 POLY   1 POL  CG    CG    0.000  1.000
    1504 POLY   1 POL  CG    CG    0.000  1.000
    1505 POLY   1 POL  CG    CG    0.000  1.000
    1506 POLY   1 POL  CG    CG    0.000  1.000
    1507 POLY   1 POL  CG    CG    0.000  1.000
    1508 POLY   1 POL  CG    CG    0.000  1.000
    1509 POLY   1 POL  CG    CG    0.000  1.000
    1510 POLY   1 POL  CG    CG    0.000  1.000
    1511 POLY   1 POL  CG    CG    0.000  1.000
    1512 POLY   1 POL  CG    CG    0.000  1.000
    1513 POLY   1 POL  CG    CG    0.000  1.000
    1514 POLY   1 POL  CG    CG    0.000  1.000
    1515 POLY   1 POL  CG    CG    0.000  1.000
    1516 POLY   1 POL  CG    CG    0.000  1.000
    1517 POLY   1 POL  CG    CG    0.000  1.000
    1518 POLY   1 POL  CG    CG    0.000  1.000
    1519 POLY   1 POL  CG    CG    0.000  1.000
    1520 POLY   1 POL  CG    CG    0.000  1.000
    1521 POLY   1 POL  CG    CG    0.000  1.000
    1522 POLY   1 POL  CG    CG    0.000  1.000
    1523 POLY   1 POL  CG    CG    0.000  1.000
    1524 POLY   1 POL  CG    CG    0.000  1.000
    1525 POLY   1 POL  CG    CG    0.000  1.000
    1526 POLY   1 POL  CG    CG    0.000  1.000
    1527 POLY   1 POL  CG    CG    0.000  1.000
    1528 POLY   1 POL  CG    CG    0.000  1.000
    1529 POLY   1 POL  CG    CG    0.000  1.000
    1530 POLY   1 POL  CG    CG    0.000  1.000
    1531 POLY   1 POL  CG    CG    0.000  1.000
    1532 POLY   1 POL  CG    CG    0.000  1.000
    1533 POLY   1 POL  CG    CG    0.000  1.000
    1534 POLY   1 POL  CG    CG    0.000  1.000
    1535 POLY   1 POL  CG    CG    0.000  1.000
    1536 POLY   1 POL  CG    CG    0.000  1.000
    1537 POLY   1 POL  CG    CG    0.000  1.000
    1538 POLY   1 POL  CG    CG    0.000  1.000
    1539 POLY   1 POL  CG    CG    0.000  1.000
    1540 POLY   1 POL  CG    CG    0.000  1.000
    1541 POLY   1 POL  CG    CG    0.000  1.000
    1542 POLY   1 POL  CG    CG    0.000  1.000
    1543 POLY   1 POL  CG    CG    0.000  1.000
    1544 POLY   1 POL  CG    CG    0.000  1.000
    1545 POLY   1 POL  CG    CG    0.000  1.000
    1546 POLY   1 POL  CG    CG    0.000  1.000
    1547 POLY   1 POL  CG    CG    0.000  1.000
    1548 POLY   1 POL  CG    CG    0.000  1.000
    1549 POLY   1 POL  CG    CG    0.000  1.000
    1550 POLY   1 POL  CG    CG    0.000  1.000
    1551 POLY   1 POL  CG    CG    0.000  1.000
    1552 POLY   1 POL  CG    CG    0.000  1.000
    1553 POLY   1 POL  CG    CG    0.000  1.000
    1554 POLY   1 POL  CG    CG    0.000  1.000
    1555 POLY   1 POL  CG    CG    0.000  1.000
    1556 POLY   1 POL  CG    CG    0.000  1.000
    1557 POLY   1 POL  CG    CG    0.000  1.000
    1558 POLY   1 POL  CG    CG    0.000  1.000
    1559 POLY   1 POL  CG    CG    0.000  1.000
    1560 POLY   1 POL  CG    CG    0.000  1.000
    1561 POLY   1 POL  CG    CG    0.000  1.000
    1562 POLY   1 POL  CG    CG    0.000  1.000
    1563 POLY   1 POL  CG    CG    0.000  1.000
    1564 POLY   1 POL  CG    CG    0.000  1.000
    1565 POLY   1 POL  CG    CG    0.000  1.000
    1566 POLY   1 POL  CG    CG    0.000  1.000
    1567 POLY   1 POL  CG    CG    0.000  1.000
    1568 POLY   1 POL  CG    CG    0.000  1.000
    1569 POLY   1 POL  CG    CG    0.000  1.000
    1570 POLY   1 POL  CG    CG    0.000  1.000
    1571 POLY   1 POL  CG    CG    0.000  1.000
    1572 POLY   1 POL  CG    CG    0.000  1.000
    1573 POLY   1 POL  CG    CG    0.000  1.000
    1574 POLY   1 POL  CG    CG    0.000  1.000
    1575 POLY   1 POL  CG    CG    0.000  1.000
    1576 POLY   1 POL  CG    CG    0.000  1.000
    1577 POLY   1 POL  CG    CG    0.000  1.000
    1578 POLY   1 POL  CG    CG    0.000  1.000
    1579 POLY   1 POL  CG    CG    0.000  1.000
    1580 POLY   1 POL  CG    CG    0.000  1.000
    1581 POLY   1 POL  CG    CG    0.000  1.000
    1582 POLY   1 POL  CG    CG    0.000  1.000
    1583 POLY   1 POL  CG    CG    0.000  1.000
    1584 POLY   1 POL  CG    CG    0.000  1.000
    1585 POLY   1 POL  CG    CG    0.000  1.000
    1586 POLY   1 POL  CG    CG    0.000  1.000
    1587 POLY   1 POL  CG    CG    0.000  1.000
    1588 POLY   1 POL  CG    CG    0.000  1.000
    1589 POLY   1 POL  CG    CG    0.000  1.000
    1590 POLY   1 POL  CG    CG    0.000  1.000
    1591 POLY   1 POL  CG    CG    0.000  1.000
    1592 POLY   1 POL  CG    CG    0.000  1.000
    1593 POLY   1 POL  CG    CG    0.000  1.000
    1594 POLY   1 POL  CG    CG    0.000  1.000
    1595 POLY   1 POL  CG    CG    0.000  1.000
    1596 POLY   1 POL  CG    CG    0.000  1.000
    1597 POLY   1 POL  CG    CG    0.000  1.000
    1598 POLY   1 POL  CG    CG    0.000  1.000
    1599 POLY   1 POL  CG    CG    0.000  1.000
    1600 POLY   1 POL  CG    CG    0.000  1.000
    1601 POLY   1 POL  CG    CG    0.000  1.000
    1602 POLY   1 POL  CG    CG    0.000  1.000
    1603 POLY   1 POL  CG    CG    0.000  1.000
    1604 POLY   1 POL  CG    CG    0.000  1.000
    1605 POLY   1 POL  CG    CG    0.000  1.000
    1606 POLY   1 POL  CG    CG    0.000  1.000
    1607 POLY   1 POL  CG    CG    0.000  1.000
    1608 POLY   1 POL  CG    CG    0.000  1.000
    1609 POLY   1 POL  CG    CG    0.000  1.000
    1610 POLY   1 POL  CG    CG    0.000  1.000
    1611 POLY   1 POL  CG    CG    0.000  1.000
    1612 POLY   1 POL  CG    CG    0.000  1.000
    1613 POLY   1 POL  CG    CG    0.000  1.000
    1614 POLY   1 POL  CG    CG    0.000  1.000
    1615 POLY   1 POL  CG    CG    0.000  1.000
    1616 POLY   1 POL  CG    CG    0.000  1.000
    1617 POLY   1 POL  CG    CG    0.000  1.000
    1618 POLY   1 POL  CG    CG    0.000  1.000
    1619 POLY   1 POL  CG    CG    0.000  1.000
    1620 POLY   1 POL  CG    CG    0.000  1.000
    1621 POLY   1 POL  CG    CG    0.000  1.000
    1622 POLY   1 POL  CG    CG    0.000  1.000
    1623 POLY   1 POL  CG    CG    0.000  1.000
    1624 POLY   1 POL  CG    CG    0.000  1.000
    1625 POLY   1 POL  CG    CG    0.000  1.000
    1626 POLY   1 POL  CG    CG    0.000  1.000
    1627 POLY   1 POL  CG    CG    0.000  1.000
    1628 POLY   1 POL  CG    CG    0.000  1.000
    1629 POLY   1 POL  CG    CG    0.000  1.000
    1630 POLY   1 POL  CG    CG    0.000  1.000
    1631 POLY   1 POL  CG    CG    0.000  1.000
    1632 POLY   1 POL  CG    CG    0.000  1.000
    1633 POLY   1 POL  CG    CG    0.000  1.000
    1634 POLY   1 POL  CG    CG    0.000  1.000
    1635 POLY   1 POL  CG    CG    0.000  1.000
    1636 POLY   1 POL  CG    CG    0.000  1.000
    1637 POLY   1 POL  CG    CG    0.000  1.000
    1638 POLY   1 POL  CG    CG    0.000  1.000
    1639 POLY   1 POL  CG    CG    0.000  1.000
    1640 POLY   1 POL  CG    CG    0.000  1.000
    1641 POLY   1 POL  CG    CG    0.000  1.000
    1642 POLY   1 POL  CG    CG    0.000  1.000
    1643 POLY   1 POL  CG    CG    0.000  1.000
    1644 POLY   1 POL  CG    CG    0.000  1.000
    1645 POLY   1 POL  CG    CG    0.000  1.000
    1646 POLY   1 POL  CG    CG    0.000  1.000
    1647 POLY   1 POL  CG    CG    0.000  1.000
    1648 POLY   1 POL  CG    CG    0.000  1.000
    1649 POLY   1 POL  CG    CG    0.000  1.000
    1650 POLY   1 POL  CG    CG    0.000  1.000
    1651 POLY   1 POL  CG    CG    0.000  1.000
    1652 POLY   1 POL  CG    CG    0.000  1.000
    1653 POLY   1 POL  CG    CG    0.000  1.000
    1654 POLY   1 POL  CG    CG    0.000  1.000
    1655 POLY   1 POL  CG    CG    0.000  1.000
    1656 POLY   1 POL  CG    CG    0.000  1.000
    1657 POLY   1 POL  CG    CG    0.000  1.000
    1658 POLY   1 POL  CG    CG    0.000  1.000
    1659 POLY   1 POL  CG    CG    0.000  1.000
    1660 POLY   1 POL  CG    CG    0.000  1.000
    1661 POLY   1 POL  CG    CG    0.000  1.000
    1662 POLY   1 POL  CG    CG    0.000  1.000
    1663 POLY   1 POL  CG    CG    0.000  1.000
    1664 POLY   1 POL  CG    CG    0.000  1.000
    1665 POLY   1 POL  CG    CG    0.000  1.000
    1666 POLY   1 POL  CG    CG    0.000  1.000
    1667 POLY   1 POL  CG    CG    0.000  1.000
    1668 POLY   1 POL  CG    CG    0.000  1.000
    1669 POLY   1 POL  CG    CG    0.000  1.000
    1670 POLY   1 POL  CG    CG    0.000  1.000
    1671 POLY   1 POL  CG    CG    0.000  1.000
    1672 POLY   1 POL  CG    CG    0.000  1.000
    1673 POLY   1 POL  CG    CG    0.000  1.000
    1674 POLY   1 POL  CG    CG    0.000  1.000
    1675 POLY   1 POL  CG    CG    0.000  1.000
    1676 POLY   1 POL  CG    CG    0.000  1.000
    1677 POLY   1 POL  CG    CG    0.000  1.000
    1678 POLY   1 POL  CG    CG    0.000  1.000
    1679 POLY   1 POL  CG    CG    0.000  1.000
    1680 POLY   1 POL  CG    CG    0.000  1.000
    1681 POLY   1 POL  CG    CG    0.000  1.000
    1682 POLY   1 POL  CG    CG    0.000  1.000
    1683 POLY   1 POL  CG    CG    0.000  1.000
    1684 POLY   1 POL  CG    CG    0.000  1.000
    1685 POLY   1 POL  CG    CG    0.000  1.000
    1686 POLY   1 POL  CG    CG    0.000  1.000
    1687 POLY   1 POL  CG    CG    0.000  1.000
    1688 POLY   1 POL  CG    CG    0.000  1.000
    1689 POLY   1 POL  CG    CG    0.000  1.000
    1690 POLY   1 POL  CG    CG    0.000  1.000
    1691 POLY   1 POL  CG    CG    0.000  1.000
    1692 POLY   1 POL  CG    CG    0.000  1.000
    1693 POLY   1 POL  CG    CG    0.000  1.000
    1694 POLY   1 POL  CG    CG    0.000  1.000
    1695 POLY   1 POL  CG    CG    0.000  1.000
    1696 POLY   1 POL  CG    CG    0.000  1.000
    1697 POLY   1 POL  CG    CG    0.000  1.000
    1698 POLY   1 POL  CG    CG    0.000  1.000
    1699 POLY   1 POL  CG    CG    0.000  1.000
    1700 POLY   1 POL  CG    CG    0.000  1.000
    1701 POLY   1 POL  CG    CG    0.000  1.000
    1702 POLY   1 POL  CG    CG    0.000  1.000
    1703 POLY   1 POL  CG    CG    0.000  1.000
    1704 POLY   1 POL  CG    CG    0.000  1.000
    1705 POLY   1 POL  CG    CG    0.000  1.000
    1706 POLY   1 POL  CG    CG    0.000  1.000
    1707 POLY   1 POL  CG    CG    0.000  1.000
    1708 POLY   1 POL  CG    CG    0.000  1.000
    1709 POLY   1 POL  CG    CG    0.000  1.000
    1710 POLY   1 POL  CG    CG    0.000  1.000
    1711 POLY   1 POL  CG    CG    0.000  1.000
    1712 POLY   1 POL  CG    CG    0.000  1.000
    1713 POLY   1 POL  CG    CG    0.000  1.000
    1714 POLY   1 POL  CG    CG    0.000  1.000
    1715 POLY   1 POL  CG    CG    0.000  1.000
    1716 POLY   1 POL  CG    CG    0.000  1.000
    1717 POLY   1 POL  CG    CG    0.000  1.000
    1718 POLY   1 POL  CG    CG    0.000  1.000
    1719 POLY   1 POL  CG    CG    0.000  1.000
    1720 POLY   1 POL  CG    CG    0.000  1.000
    1721 POLY   1 POL  CG    CG    0.000  1.000
    1722 POLY   1 POL  CG    CG    0.000  1.000
    1723 POLY   1 POL  CG    CG    0.000  1.000
    1724 POLY   1 POL  CG    CG    0.000  1.000
    1725 POLY   1 POL  CG    CG    0.000  1.000
    1726 POLY   1 POL  CG    CG    0.000  1.000
    1727 POLY   1 POL  CG    CG    0.000  1.000
    1728 POLY   1 POL  CG    CG    0.000  1.000
    1729 POLY   1 POL  CG    CG    0.000  1.000
    1730 POLY   1 POL  CG    CG    0.000  1.000
    1731 POLY   1 POL  CG    CG    0.000  1.000
    1732 POLY   1 POL  CG    CG    0.000  1.000
    1733 POLY   1 POL  CG    CG    0.000  1.000
    1734 POLY   1 POL  CG    CG    0.000  1.000
    1735 POLY   1 POL  CG    CG    0.000  1.000
    1736 POLY   1 POL  CG    CG    0.000  1.000
    1737 POLY   1 POL  CG    CG    0.000  1.000
    1738 POLY   1 POL  CG    CG    0.000  1.000
    1739 POLY   1 POL  CG    CG    0.000  1.000
    1740 POLY   1 POL  CG    CG    0.000  1.000
    1741 POLY   1 POL  CG    CG    0.000  1.000
    1742 POLY   1 POL  CG    CG    0.000  1.000
    1743 POLY   1 POL  CG    CG    0.000  1.000
    1744 POLY   1 POL  CG    CG    0.000  1.000
    1745 POLY   1 POL  CG    CG    0.000  1.000
    1746 POLY   1 POL  CG    CG    0.000  1.000
    1747 POLY   1 POL  CG    CG    0.000  1.000
    1748 POLY   1 POL  CG    CG    0.000  1.000
    1749 POLY   1 POL  CG    CG    0.000  1.000
    1750 POLY   1 POL  CG    CG    0.000  1.000
    1751 POLY   1 POL  CG    CG    0.000  1.000
    1752 POLY   1 POL  CG    CG    0.000  1.000
    1753 POLY   1 POL  CG    CG    0.000  1.000
    1754 POLY   1 POL  CG    CG    0.000  1.000
    1755 POLY   1 POL  CG    CG    0.000  1.000
    1756 POLY   1 POL  CG    CG    0.000  1.000
    1757 POLY   1 POL  CG    CG    0.000  1.000
    1758 POLY   1 POL  CG    CG    0.000  1.000
    1759 POLY   1 POL  CG    CG    0.000  1.000
    1760 POLY   1 POL  CG    CG    0.000  1.000
    1761 POLY   1 POL  CG    CG    0.000  1.000
    1762 POLY   1 POL  CG    CG    0.000  1.000
    1763 POLY   1 POL  CG    CG    0.000  1.000
    1764 POLY   1 POL  CG    CG    0.000  1.000
    1765 POLY   1 POL  CG    CG    0.000  1.000
    1766 POLY   1 POL  CG    CG    0.000  1.000
    1767 POLY   1 POL  CG    CG    0.000  1.000
    1768 POLY   1 POL  CG    CG    0.000  1.000
    1769 POLY   1 POL  CG    CG    0.000  1.000
    1770 POLY   1 POL  CG    CG    0.000  1.000
    1771 POLY   1 POL  CG    CG    0.000  1.000
    1772 POLY   1 POL  CG    CG    0.000  1.000
    1773 POLY   1 POL  CG    CG    0.000  1.000
    1774 POLY   1 POL  CG    CG    0.000  1.000
    1775 POLY   1 POL  CG    CG    0.000  1.000
    1776 POLY   1 POL  CG    CG    0.000  1.000
    1777 POLY   1 POL  CG    CG    0.000  1.000
    1778 POLY   1 POL  CG    CG    0.000  1.000
    1779 POLY   1 POL  CG    CG    0.000  1.000
    1780 POLY   1 POL  CG    CG    0.000  1.000
    1781 POLY   1 POL  CG    CG    0.000  1.000
    1782 POLY   1 POL  CG    CG    0.000  1.000
    1783 POLY   1 POL  CG    CG    0.000  1.000
    1784 POLY   1 POL  CG    CG    0.000  1.000
    1785 POLY   1 POL  CG    CG    0.000  1.000
    1786 POLY   1 POL  CG    CG    0.000  1.000
    1787 POLY   1 POL  CG    CG    0.000  1.000
    1788 POLY   1 POL  CG    CG    0.000  1.000
    1789 POLY   1 POL  CG    CG    0.000  1.000
    1790 POLY   1 POL  CG    CG    0.000  1.000
    1791 POLY   1 POL  CG    CG    0.000  1.000
    1792 POLY   1 POL  CG    CG    0.000  1.000
    1793 POLY   1 POL  CG    CG    0.000  1.000
    1794 POLY   1 POL  CG    CG    0.000  1.000
    1795 POLY   1 POL  CG    CG    0.000  1.000
    1796 POLY   1 POL  CG    CG    0.000  1.000
    1797 POLY   1 POL  CG    CG    0.000  1.000
    1798 POLY   1 POL  CG    CG    0.000  1.000
    1799 POLY   1 POL  CG    CG    0.000  1.000
    1800 POLY   1 POL  CG    CG    0.000  1.000
    1801 POLY   1 POL  CG    CG    0.000  1.000
    1802 POLY   1 POL  CG    CG    0.000  1.000
    1803 POLY   1 POL  CG    CG    0.000  1.000
    1804 POLY   1 POL  CG    CG    0.000  1.000
    1805 POLY   1 POL  CG    CG    0.000  1.000
    1806 POLY   1 POL  CG    CG    0.000  1.000
    1807 POLY   1 POL  CG    CG    0.000  1.000
    1808 POLY   1 POL  CG    CG    0.000  1.000
    1809 POLY   1 POL  CG    CG    0.000  1.000
    1810 POLY   1 POL  CG    CG    0.000  1.000
    1811 POLY   1 POL  CG    CG    0.000  1.000
    1812 POLY   1 POL  CG    CG    0.000  1.000
    1813 POLY   1 POL  CG    CG    0.000  1.000
    1814 POLY   1 POL  CG    CG    0.000  1.000
    1815 POLY   1 POL  CG    CG    0.000  1.000
    1816 POLY   1 POL  CG    CG    0.000  1.000
    1817 POLY   1 POL  CG    CG    0.000  1.000
    1818 POLY   1 POL  CG    CG    0.000  1.000
    1819 POLY   1 POL  CG    CG    0.000  1.000
    1820 POLY   1 POL  CG    CG    0.000  1.000
    1821 POLY   1 POL  CG    CG    0.000  1.000
    1822 POLY   1 POL  CG    CG    0.000  1.000
    1823 POLY   1 POL  CG    CG    0.000  1.000
    1824 POLY   1 POL  CG    CG    0.000  1.000
    1825 POLY   1 POL  CG    CG    0.000  1.000
    1826 POLY   1 POL  CG    CG    0.000  1.000
    1827 POLY   1 POL  CG    CG    0.000  1.000
    1828 POLY   1 POL  CG    CG    0.000  1.000
    1829 POLY   1 POL  CG    CG    0.000  1.000
    1830 POLY   1 POL  CG    CG    0.000  1.000
    1831 POLY   1 POL  CG    CG    0.000  1.000
    1832 POLY   1 POL  CG    CG    0.000  1.000
    1833 POLY   1 POL  CG    CG    0.000  1.000
    1834 POLY   1 POL  CG    CG    0.000  1.000
    1835 POLY   1 POL  CG    CG    0.000  1.000
    1836 POLY   1 POL  CG    CG    0.000  1.000
    1837 POLY   1 POL  CG    CG    0.000  1.000
    1838 POLY   1 POL  CG    CG    0.000  1.000
    1839 POLY   1 POL  CG    CG    0.000  1.000
    1840 POLY   1 POL  CG    CG    0.000  1.000
    1841 POLY   1 POL  CG    CG    0.000  1.000
    1842 POLY   1 POL  CG    CG    0.000  1.000
    1843 POLY   1 POL  CG    CG    0.000  1.000
    1844 POLY   1 POL  CG    CG    0.000  1.000
    1845 POLY   1 POL  CG    CG    0.000  1.000
    1846 POLY   1 POL  CG    CG    0.000  1.000
    1847 POLY   1 POL  CG    CG    0.000  1.000
    1848 POLY   1 POL  CG    CG    0.000  1.000
    1849 POLY   1 POL  CG    CG    0.000  1.000
    1850 POLY   1 POL  CG    CG    0.000  1.000
    1851 POLY   1 POL  CG    CG    0.000  1.000
    1852 POLY   1 POL  CG    CG    0.000  1.000
    1853 POLY   1 POL  CG    CG    0.000  1.000
    1854 POLY   1 POL  CG    CG    0.000  1.000
    1855 POLY   1 POL  CG    CG    0.000  1.000
    1856 POLY   1 POL  CG    CG    0.000  1.000
    1857 POLY   1 POL  CG    CG    0.000  1.000
    1858 POLY   1 POL  CG    CG    0.000  1.000
    1859 POLY   1 POL  CG    CG    0.000  1.000
    1860 POLY   1 POL  CG    CG    0.000  1.000
    1861 POLY   1 POL  CG    CG    0.000  1.000
    1862 POLY   1 POL  CG    CG    0.000  1.000
    1863 POLY   1 POL  CG    CG    0.000  1.000
    1864 POLY   1 POL  CG    CG    0.000  1.000
    1865 POLY   1 POL  CG    CG    0.000  1.000
    1866 POLY   1 POL  CG    CG    0.000  1.000
    1867 POLY   1 POL  CG    CG    0.000  1.000
    1868 POLY   1 POL  CG    CG    0.000  1.000
    1869 POLY   1 POL  CG    CG    0.000  1.000
    1870 POLY   1 POL  CG    CG    0.000  1.000
    1871 POLY   1 POL  CG    CG    0.000  1.000
    1872 POLY   1 POL  CG    CG    0.000  1.000
    1873 POLY   1 POL  CG    CG    0.000  1.000
    1874 POLY   1 POL  CG    CG    0.000  1.000
    1875 POLY   1 POL  CG    CG    0.000  1.000
    1876 POLY   1 POL  CG    CG    0.000  1.000
    1877 POLY   1 POL  CG    CG    0.000  1.000
    1878 POLY   1 POL  CG    CG    0.000  1.000
    1879 POLY   1 POL  CG    CG    0.000  1.000
    1880 POLY   1 POL  CG    CG    0.000  1.000
    1881 POLY   1 POL  CG    CG    0.000  1.000
    1882 POLY   1 POL  CG    CG    0.000  1.000
    1883 POLY   1 POL  CG    CG    0.000  1.000
    1884 POLY   1 POL  CG    CG    0.000  1.000
    1885 POLY   1 POL  CG    CG    0.000  1.000
    1886 POLY   1 POL  CG    CG    0.000  1.000
    1887 POLY   1 POL  CG    CG    0.000  1.000
    1888 POLY   1 POL  CG    CG    0.000  1.000
    1889 POLY   1 POL  CG    CG    0.000  1.000
    1890 POLY   1 POL  CG    CG    0.000  1.000
    1891 POLY   1 POL  CG    CG    0.000  1.000
    1892 POLY   1 POL  CG    CG    0.000  1.000
    1893 POLY   1 POL  CG    CG    0.000  1.000
    1894 POLY   1 POL  CG    CG    0.000  1.000
    1895 POLY   1 POL  CG    CG    0.000  1.000
    1896 POLY   1 POL  CG    CG    0.000  1.000
    1897 POLY   1 POL  CG    CG    0.000  1.000
    1898 POLY   1 POL  CG    CG    0.000  1.000
    1899 POLY   1 POL  CG    CG    0.000  1.000
    1900 POLY   1 POL  CG    CG    0.000  1.000
    1901 POLY   1 POL  CG    CG    0.000  1.000
    1902 POLY   1 POL  CG    CG    0.000  1.000
    1903 POLY   1 POL  CG    CG    0.000  1.000
    1904 POLY   1 POL  CG    CG    0.000  1.000
    1905 POLY   1 POL  CG    CG    0.000  1.000
    1906 POLY   1 POL  CG    CG    0.000  1.000
    1907 POLY   1 POL  CG    CG    0.000  1.000
    1908 POLY   1 POL  CG    CG    0.000  1.000
    1909 POLY   1 POL  CG    CG    0.000  1.000
    1910 POLY   1 POL  CG    CG    0.000  1.000
    1911 POLY   1 POL  CG    CG    0.000  1.000
    1912 POLY   1 POL  CG    CG    0.000  1.000
    1913 POLY   1 POL  CG    CG    0.000  1.000
    1914 POLY   1 POL  CG    CG    0.000  1.000
    1915 POLY   1 POL  CG    CG    0.000  1.000
    1916 POLY   1 POL  CG    CG    0.000  1.000
    1917 POLY   1 POL  CG    CG    0.000  1.000
    1918 POLY   1 POL  CG    CG    0.000  1.000
    1919 POLY   1 POL  CG    CG    0.000  1.000
    1920 POLY   1 POL  CG    CG    0.000  1.000
    1921 POLY   1 POL  CG    CG    0.000  1.000
    1922 POLY   1 POL  CG    CG    0.000  1.000
    1923 POLY   1 POL  CG    CG    0.000  1.000
    1924 POLY   1 POL  CG    CG    0.000  1.000
    1925 POLY   1 POL  CG    CG    0.000  1.000
    1926 POLY   1 POL  CG    CG    0.000  1.000
    1927 POLY   1 POL  CG    CG    0.000  1.000
    1928 POLY   1 POL  CG    CG    0.000  1.000
    1929 POLY   1 POL  CG    CG    0.000  1.000
    1930 POLY   1 POL  CG    CG    0.000  1.000
    1931 POLY   1 POL  CG    CG    0.000  1.000
    1932 POLY   1 POL  CG    CG    0.000  1.000
    1933 POLY   1 POL  CG    CG    0.000  1.000
    1934 POLY   1 POL  CG    CG    0.000  1.000
    1935 POLY   1 POL  CG    CG    0.000  1.000
    1936 POLY   1 POL  CG    CG    0.000  1.000
    1937 POLY   1 POL  CG    CG    0.000  1.000
    1938 POLY   1 POL  CG    CG    0.000  1.000
    1939 POLY   1 POL  CG    CG    0.000  1.000
    1940 POLY   1 POL  CG    CG    0.000  1.000
    1941 POLY   1 POL  CG    CG    0.000  1.000
    1942 POLY   1 POL  CG    CG    0.000  1.000
    1943 POLY   1 POL  CG    CG    0.000  1.000
    1944 POLY   1 POL  CG    CG    0.000  1.000
    1945 POLY   1 POL  CG    CG    0.000  1.000
    1946 POLY   1 POL  CG    CG    0.000  1.000
    1947 POLY   1 POL  CG    CG    0.000  1.000
    1948 POLY   1 POL  CG    CG    0.000  1.000
    1949 POLY   1 POL  CG    CG    0.000  1.000
    1950 POLY   1 POL  CG    CG    0.000  1.000
    1951 POLY   1 POL  CG    CG    0.000  1.000
    1952 POLY   1 POL  CG    CG    0.000  1.000
    1953 POLY   1 POL  CG    CG    0.000  1.000
    1954 POLY   1 POL  CG    CG    0.000  1.000
    1955 POLY   1 POL  CG    CG    0.000  1.000
    1956 POLY   1 POL  CG    CG    0.000  1.000
    1957 POLY   1 POL  CG    CG    0.000  1.000
    1958 POLY   1 POL  CG    CG    0.000  1.000
    1959 POLY   1 POL  CG    CG    0.000  1.000
    1960 POLY   1 POL  CG    CG    0.000  1.000
    1961 POLY   1 POL  CG    CG    0.000  1.000
    1962 POLY   1 POL  CG    CG    0.000  1.000
    1963 POLY   1 POL  CG    CG    0.000  1.000
    1964 POLY   1 POL  CG    CG    0.000  1.000
    1965 POLY   1 POL  CG    CG    0.000  1.000
    1966 POLY   1 POL  CG    CG    0.000  1.000
    1967 POLY   1 POL  CG    CG    0.000  1.000
    1968 POLY   1 POL  CG    CG    0.000  1.000
    1969 POLY   1 POL  CG    CG    0.000  1.000
    1970 POLY   1 POL  CG    CG    0.000  1.000
    1971 POLY   1 POL  CG    CG    0.000  1.000
    1972 POLY   1 POL  CG    CG    0.000  1.000
    1973 POLY   1 POL  CG    CG    0.000  1.000
    1974 POLY   1 POL  CG    CG    0.000  1.000
    1975 POLY   1 POL  CG    CG    0.000  1.000
    1976 POLY   1 POL  CG    CG    0.000  1.000
    1977 POLY   1 POL  CG    CG    0.000  1.000
    1978 POLY   1 POL  CG    CG    0.000  1.000
    1979 POLY   1 POL  CG    CG    0.000  1.000
    1980 POLY   1 POL  CG    CG    0.000  1.000
    1981 POLY   1 POL  CG    CG    0.000  1.000
    1982 POLY   1 POL  CG    CG    0.000  1.000
    1983 POLY   1 POL  CG    CG    0.000  1.000
    1984 POLY   1 POL  CG    CG    0.000  1.000
    1985 POLY   1 POL  CG    CG    0.000  1.000
    1986 POLY   1 POL  CG    CG    0.000  1.000
    1987 POLY   1 POL  CG    CG    0.000  1.000
    1988 POLY   1 POL  CG    CG    0.000  1.000
    1989 POLY   1 POL  CG    CG    0.000  1.000
    1990 POLY   1 POL  CG    CG    0.000  1.000
    1991 POLY   1 POL  CG    CG    0.000  1.000
    1992 POLY   1 POL  CG    CG    0.000  1.000
    1993 POLY   1 POL  CG    CG    0.000  1.000
    1994 POLY   1 POL  CG    CG    0.000  1.000
    1995 POLY   1 POL  CG    CG    0.000  1.000
    1996 POLY   1 POL  CG    CG    0.000  1.000
    1997 POLY   1 POL  CG    CG    0.000  1.000
    1998 POLY   1 POL  CG    CG    0.000  1.000
    1999 POLY   1 POL  CG    CG    0.000  1.000
    2000 POLY   1 POL  CG    CG    0.000  1.000
    2001 POLY   1 POL  CG    CG    0.000  1.000
    2002 POLY   1 POL  CG    CG    0.000  1.000
    2003 POLY   1 POL  CG    CG    0.000  1.000
    2004 POLY   1 POL  CG    CG    0.000  1.000
    2005 POLY   1 POL  CG    CG    0.000  1.000
    2006 POLY   1 POL  CG    CG    0.000  1.000
    2007 POLY   1 POL  CG    CG    0.000  1.000
    2008 POLY   1 POL  CG    CG    0.000  1.000
    2009 POLY   1 POL  CG    CG    0.000  1.000
    2010 POLY   1 POL  CG    CG    0.000  1.000
    2011 POLY   1 POL  CG    CG    0.000  1.000
    2012 POLY   1 POL  CG    CG    0.000  1.000
    2013 POLY   1 POL  CG    CG    0.000  1.000
    2014 POLY   1 POL  CG    CG    0.000  1.000
    2015 POLY   1 POL  CG    CG    0.000  1.000
    2016 POLY   1 POL  CG    CG    0.000  1.000
    2017 POLY   1 POL  CG    CG    0.000  1.000
    2018 POLY   1 POL  CG    CG    0.000  1.000
    2019 POLY   1 POL  CG    CG    0.000  1.000
    2020 POLY   1 POL  CG    CG    0.000  1.000
    2021 POLY   1 POL  CG    CG    0.000  1.000
    2022 POLY   1 POL  CG    CG    0.000  1.000
    2023 POLY   1 POL  CG    CG    0.000  1.000
    2024 POLY   1 POL  CG    CG    0.000  1.000
    2025 POLY   1 POL  CG    CG    0.000  1.000
    2026 POLY   1 POL  CG    CG    0.000  1.000
    2027 POLY   1 POL  CG    CG    0.000  1.000
    2028 POLY   1 POL  CG    CG    0.000  1.000
    2029 POLY   1 POL  CG    CG    0.000  1.000
    2030 POLY   1 POL  CG    CG    0.000  1.000
    2031 POLY   1 POL  CG    CG    0.000  1.000
    2032 POLY   1 POL  CG    CG    0.000  1.000
    2033 POLY   1 POL  CG    CG    0.000  1.000
    2034 POLY   1 POL  CG    CG    0.000  1.000
    2035 POLY   1 POL  CG    CG    0.000  1.000
    2036 POLY   1 POL  CG    CG    0.000  1.000
    2037 POLY   1 POL  CG    CG    0.000  1.000
    2038 POLY   1 POL  CG    CG    0.000  1.000
    2039 POLY   1 POL  CG    CG    0.000  1.000
    2040 POLY   1 POL  CG    CG    0.000  1.000
    2041 POLY   1 POL  CG    CG    0.000  1.000
    2042 POLY   1 POL  CG    CG    0.000  1.000
    2043 POLY   1 POL  CG    CG    0.000  1.000
    2044 POLY   1 POL  CG    CG    0.000  1.000
    2045 POLY   1 POL  CG    CG    0.000  1.000
    2046 POLY   1 POL  CG    CG    0.000  1.000
    2047 POLY   1 POL  CG    CG    0.000  1.000
    2048 POLY   1 POL  CG    CG    0.000  1.000
    2049 POLY   1 POL  CG    CG    0.000  1.000
    2050 POLY   1 POL  CG    CG    0.000  1.000
    2051 POLY   1 POL  CG    CG    0.000  1.000
    2052 POLY   1 POL  CG    CG    0.000  1.000
    2053 POLY   1 POL  CG    CG    0.000  1.000
    2054 POLY   1 POL  CG    CG    0.000  1.000
    2055 POLY   1 POL  CG    CG    0.000  1.000
    2056 POLY   1 POL  CG    CG    0.000  1.000
    2057 POLY   1 POL  CG    CG    0.000  1.000
    2058 POLY   1 POL  CG    CG    0.000  1.000
    2059 POLY   1 POL  CG    CG    0.000  1.000
    2060 POLY   1 POL  CG    CG    0.000  1.000
    2061 POLY   1 POL  CG    CG    0.000  1.000
    2062 POLY   1 POL  CG    CG    0.000  1.000
    2063 POLY   1 POL  CG    CG    0.000  1.000
    2064 POLY   1 POL  CG    CG    0.000  1.000
    2065 POLY   1 POL  CG    CG    0.000  1.000
    2066 POLY   1 POL  CG    CG    0.000  1.000
    2067 POLY   1 POL  CG    CG    0.000  1.000
    2068 POLY   1 POL  CG    CG    0.000  1.000
    2069 POLY   1 POL  CG    CG    0.000  1.000
    2070 POLY   1 POL  CG    CG    0.000  1.000
    2071 POLY   1 POL  CG    CG    0.000  1.000
    2072 POLY   1 POL  CG    CG    0.000  1.000
    2073 POLY   1 POL  CG    CG    0.000  1.000
    2074 POLY   1 POL  CG    CG    0.000  1.000
    2075 POLY   1 POL  CG    CG    0.000  1.000
    2076 POLY   1 POL  CG    CG    0.000  1.000
    2077 POLY   1 POL  CG    CG    0.000  1.000
    2078 POLY   1 POL  CG    CG    0.000  1.000
    2079 POLY   1 POL  CG    CG    0.000  1.000
    2080 POLY   1 POL  CG    CG    0.000  1.000
    2081 POLY   1 POL  CG    CG    0.000  1.000
    2082 POLY   1 POL  CG    CG    0.000  1.000
    2083 POLY   1 POL  CG    CG    0.000  1.000
    2084 POLY   1 POL  CG    CG    0.000  1.000
    2085 POLY   1 POL  CG    CG    0.000  1.000
    2086 POLY   1 POL  CG    CG    0.000  1.000
    2087 POLY   1 POL  CG    CG    0.000  1.000
    2088 POLY   1 POL  CG    CG    0.000  1.000
    2089 POLY   1 POL  CG    CG    0.000  1.000
    2090 POLY   1 POL  CG    CG    0.000  1.000
    2091 POLY   1 POL  CG    CG    0.000  1.000
    2092 POLY   1 POL  CG    CG    0.000  1.000
    2093 POLY   1 POL  CG    CG    0.000  1.000
    2094 POLY   1 POL  CG    CG    0.000  1.000
    2095 POLY   1 POL  CG    CG    0.000  1.000
    2096 POLY   1 POL  CG    CG    0.000  1.000
    2097 POLY   1 POL  CG    CG    0.000  1.000
    2098 POLY   1 POL  CG    CG    0.000  1.000
    2099 POLY   1 POL  CG    CG    0.000  1.000
    2100 POLY   1 POL  CG    CG    0.000  1.000
    2101 POLY   1 POL  CG    CG    0.000  1.000
    2102 POLY   1 POL  CG    CG    0.000  1.000
    2103 POLY   1 POL  CG    CG    0.000  1.000
    2104 POLY   1 POL  CG    CG    0.000  1.000
    2105 POLY   1 POL  CG    CG    0.000  1.000
    2106 POLY   1 POL  CG    CG    0.000  1.000
    2107 POLY   1 POL  CG    CG    0.000  1.000
    2108 POLY   1 POL  CG    CG    0.000  1.000
    2109 POLY   1 POL  CG    CG    0.000  1.000
    2110 POLY   1 POL  CG    CG    0.000  1.000
    2111 POLY   1 POL  CG    CG    0.000  1.000
    2112 POLY   1 POL  CG    CG    0.000  1.000
    2113 POLY   1 POL  CG    CG    0.000  1.000
    2114 POLY   1 POL  CG    CG    0.000  1.000
    2115 POLY   1 POL  CG    CG    0.000  1.000
    2116 POLY   1 POL  CG    CG    0.000  1.000
    2117 POLY   1 POL  CG    CG    0.000  1.000
    2118 POLY   1 POL  CG    CG    0.000  1.000
    2119 POLY   1 POL  CG    CG    0.000  1.000
    2120 POLY   1 POL  CG    CG    0.000  1.000
    2121 POLY   1 POL  CG    CG    0.000  1.000
    2122 POLY   1 POL  CG    CG    0.000  1.000
    2123 POLY   1 POL  CG    CG    0.000  1.000
    2124 POLY   1 POL  CG    CG    0.000  1.000
    2125 POLY   1 POL  CG    CG    0.000  1.000
    2126 POLY   1 POL  CG    CG    0.000  1.000
    2127 POLY   1 POL  CG    CG    0.000  1.000
    2128 POLY   1 POL  CG    CG    0.000  1.000
    2129 POLY   1 POL  CG    CG    0.000  1.000
    2130 POLY   1 POL  CG    CG    0.000  1.000
    2131 POLY   1 POL  CG    CG    0.000  1.000
    2132 POLY   1 POL  CG    CG    0.000  1.000
    2133 POLY   1 POL  CG    CG    0.000  1.000
    2134 POLY   1 POL  CG    CG    0.000  1.000
    2135 POLY   1 POL  CG    CG    0.000  1.000
    2136 POLY   1 POL  CG    CG    0.000  1.000
    2137 POLY   1 POL  CG    CG    0.000  1.000
    2138 POLY   1 POL  CG    CG    0.000  1.000
    2139 POLY   1 POL  CG    CG    0.000  1.000
    2140 POLY   1 POL  CG    CG    0.000  1.000
    2141 POLY   1 POL  CG    CG    0.000  1.000
    2142 POLY   1 POL  CG    CG    0.000  1.000
    2143 POLY   1 POL  CG    CG    0.000  1.000
    2144 POLY   1 POL  CG    CG    0.000  1.000
    2145 POLY   1 POL  CG    CG    0.000  1.000
    2146 POLY   1 POL  CG    CG    0.000  1.000
    2147 POLY   1 POL  CG    CG    0.000  1.000
    2148 POLY   1 POL  CG    CG    0.000  1.000
    2149 POLY   1 POL  CG    CG    0.000  1.000
    2150 POLY   1 POL  CG    CG    0.000  1.000
    2151 POLY   1 POL  CG    CG    0.000  1.000
    2152 POLY   1 POL  CG    CG    0.000  1.000
    2153 POLY   1 POL  CG    CG    0.000  1.000
    2154 POLY   1 POL  CG    CG    0.000  1.000
    2155 POLY   1 POL  CG    CG    0.000  1.000
    2156 POLY   1 POL  CG    CG    0.000  1.000
    2157 POLY   1 POL  CG    CG    0.000  1.000
    2158 POLY   1 POL  CG    CG    0.000  1.000
    2159 POLY   1 POL  CG    CG    0.000  1.000
    2160 POLY   1 POL  CG    CG    0.000  1.000
    2161 POLY   1 POL  CG    CG    0.000  1.000
    2162 POLY   1 POL  CG    CG    0.000  1.000
    2163 POLY   1 POL  CG    CG    0.000  1.000
    2164 POLY   1 POL  CG    CG    0.000  1.000
    2165 POLY   1 POL  CG    CG    0.000  1.000
    2166 POLY   1 POL  CG    CG    0.000  1.000
    2167 POLY   1 POL  CG    CG    0.000  1.000
    2168 POLY   1 POL  CG    CG    0.000  1.000
    2169 POLY   1 POL  CG    CG    0.000  1.000
    2170 POLY   1 POL  CG    CG    0.000  1.000
    2171 POLY   1 POL  CG    CG    0.000  1.000
    2172 POLY   1 POL  CG    CG    0.000  1.000
    2173 POLY   1 POL  CG    CG    0.000  1.000
    2174 POLY   1 POL  CG    CG    0.000  1.000
    2175 POLY   1 POL  CG    CG    0.000  1.000
    2176 POLY   1 POL  CG    CG    0.000  1.000
    2177 POLY   1 POL  CG    CG    0.000  1.000
    2178 POLY   1 POL  CG    CG    0.000  1.000
    2179 POLY   1 POL  CG    CG    0.000  1.000
    2180 POLY   1 POL  CG    CG    0.000  1.000
    2181 POLY   1 POL  CG    CG    0.000  1.000
    2182 POLY   1 POL  CG    CG    0.000  1.000
    2183 POLY   1 POL  CG    CG    0.000  1.000
    2184 POLY   1 POL  CG    CG    0.000  1.000
    2185 POLY   1 POL  CG    CG    0.000  1.000
    2186 POLY   1 POL  CG    CG    0.000  1.000
    2187 POLY   1 POL  CG    CG    0.000  1.000
    2188 POLY   1 POL  CG    CG    0.000  1.000
    2189 POLY   1 POL  CG    CG    0.000  1.000
    2190 POLY   1 POL  CG    CG    0.000  1.000
    2191 POLY   1 POL  CG    CG    0.000  1.000
    2192 POLY   1 POL  CG    CG    0.000  1.000
    2193 POLY   1 POL  CG    CG    0.000  1.000
    2194 POLY   1 POL  CG    CG    0.000  1.000
    2195 POLY   1 POL  CG    CG    0.000  1.000
    2196 POLY   1 POL  CG    CG    0.000  1.000
    2197 POLY   1 POL  CG    CG    0.000  1.000
    2198 POLY   1 POL  CG    CG    0.000  1.000
    2199 POLY   1 POL  CG    CG    0.000  1.000
    2200 POLY   1 POL  CG    CG    0.000  1.000
    2201 POLY   1 POL  CG    CG    0.000  1.000
    2202 POLY   1 POL  CG    CG    0.000  1.000
    2203 POLY   1 POL  CG    CG    0.000  1.000
    2204 POLY   1 POL  CG    CG    0.000  1.000
    2205 POLY   1 POL  CG    CG    0.000  1.000
    2206 POLY   1 POL  CG    CG    0.000  1.000
    2207 POLY   1 POL  CG    CG    0.000  1.000
    2208 POLY   1 POL  CG    CG    0.000  1.000
    2209 POLY   1 POL  CG    CG    0.000  1.000
    2210 POLY   1 POL  CG    CG    0.000  1.000
    2211 POLY   1 POL  CG    CG    0.000  1.000
    2212 POLY   1 POL  CG    CG    0.000  1.000
    2213 POLY   1 POL  CG    CG    0.000  1.000
    2214 POLY   1 POL  CG    CG    0.000  1.000
    2215 POLY   1 POL  CG    CG    0.000  1.000
    2216 POLY   1 POL  CG    CG    0.000  1.000
    2217 POLY   1 POL  CG    CG    0.000  1.000
    2218 POLY   1 POL  CG    CG    0.000  1.000
    2219 POLY   1 POL  CG    CG    0.000  1.000
    2220 POLY   1 POL  CG    CG    0.000  1.000
    2221 POLY   1 POL  CG    CG    0.000  1.000
    2222 POLY   1 POL  CG    CG    0.000  1.000
    2223 POLY   1 POL  CG    CG    0.000  1.000
    2224 POLY   1 POL  CG    CG    0.000  1.000
    2225 POLY   1 POL  CG    CG    0.000  1.000
    2226 POLY   1 POL  CG    CG    0.000  1.000
    2227 POLY   1 POL  CG    CG    0.000  1.000
    2228 POLY   1 POL  CG    CG    0.000  1.000
    2229 POLY   1 POL  CG    CG    0.000  1.000
    2230 POLY   1 POL  CG    CG    0.000  1.000
    2231 POLY   1 POL  CG    CG    0.000  1.000
    2232 POLY   1 POL  CG    CG    0.000  1.000
    2233 POLY   1 POL  CG    CG    0.000  1.000
    2234 POLY   1 POL  CG    CG    0.000  1.000
    2235 POLY   1 POL  CG    CG    0.000  1.000
    2236 POLY   1 POL  CG    CG    0.000  1.000
    2237 POLY   1 POL  CG    CG    0.000  1.000
    2238 POLY   1 POL  CG    CG    0.000  1.000
    2239 POLY   1 POL  CG    CG    0.000  1.000
    2240 POLY   1 POL  CG    CG    0.000  1.000
    2241 POLY   1 POL  CG    CG    0.000  1.000
    2242 POLY   1 POL  CG    CG    0.000  1.000
    2243 POLY   1 POL  CG    CG    0.000  1.000
    2244 POLY   1 POL  CG    CG    0.000  1.000
    2245 POLY   1 POL  CG    CG    0.000  1.000
    2246 POLY   1 POL  CG    CG    0.000  1.000
    2247 POLY   1 POL  CG    CG    0.000  1.000
    2248 POLY   1 POL  CG    CG    0.000  1.000
    2249 POLY   1 POL  CG    CG    0.000  1.000
    2250 POLY   1 POL  CG    CG    0.000  1.000
    2251 POLY   1 POL  CG    CG    0.000  1.000
    2252 POLY   1 POL  CG    CG    0.000  1.000
    2253 POLY   1 POL  CG    CG    0.000  1.000
    2254 POLY   1 POL  CG    CG    0.000  1.000
    2255 POLY   1 POL  CG    CG    0.000  1.000
    2256 POLY   1 POL  CG    CG    0.000  1.000
    2257 POLY   1 POL  CG    CG    0.000  1.000
    2258 POLY   1 POL  CG    CG    0.000  1.000
    2259 POLY   1 POL  CG    CG    0.000  1.000
    2260 POLY   1 POL  CG    CG    0.000  1.000
    2261 POLY   1 POL  CG    CG    0.000  1.000
    2262 POLY   1 POL  CG    CG    0.000  1.000
    2263 POLY   1 POL  CG    CG    0.000  1.000
    2264 POLY   1 POL  CG    CG    0.000  1.000
    2265 POLY   1 POL  CG    CG    0.000  1.000
    2266 POLY   1 POL  CG    CG    0.000  1.000
    2267 POLY   1 POL  CG    CG    0.000  1.000
    2268 POLY   1 POL  CG    CG    0.000  1.000
    2269 POLY   1 POL  CG    CG    0.000  1.000
    2270 POLY   1 POL  CG    CG    0.000  1.000
    2271 POLY   1 POL  CG    CG    0.000  1.000
    2272 POLY   1 POL  CG    CG    0.000  1.000
    2273 POLY   1 POL  CG    CG    0.000  1.000
    2274 POLY   1 POL  CG    CG    0.000  1.000
    2275 POLY   1 POL  CG    CG    0.000  1.000
    2276 POLY   1 POL  CG    CG    0.000  1.000
    2277 POLY   1 POL  CG    CG    0.000  1.000
    2278 POLY   1 POL  CG    CG    0.000  1.000
    2279 POLY   1 POL  CG    CG    0.000  1.000
    2280 POLY   1 POL  CG    CG    0.000  1.000
    2281 POLY   1 POL  CG    CG    0.000  1.000
    2282 POLY   1 POL  CG    CG    0.000  1.000
    2283 POLY   1 POL  CG    CG    0.000  1.000
    2284 POLY   1 POL  CG    CG    0.000  1.000
    2285 POLY   1 POL  CG    CG    0.000  1.000
    2286 POLY   1 POL  CG    CG    0.000  1.000
    2287 POLY   1 POL  CG    CG    0.000  1.000
    2288 POLY   1 POL  CG    CG    0.000  1.000
    2289 POLY   1 POL  CG    CG    0.000  1.000
    2290 POLY   1 POL  CG    CG    0.000  1.000
    2291 POLY   1 POL  CG    CG    0.000  1.000
    2292 POLY   1 POL  CG    CG    0.000  1.000
    2293 POLY   1 POL  CG    CG    0.000  1.000
    2294 POLY   1 POL  CG    CG    0.000  1.000
    2295 POLY   1 POL  CG    CG    0.000  1.000
    2296 POLY   1 POL  CG    CG    0.000  1.000
    2297 POLY   1 POL  CG    CG    0.000  1.000
    2298 POLY   1 POL  CG    CG    0.000  1.000
    2299 POLY   1 POL  CG    CG    0.000  1.000
    2300 POLY   1 POL  CG    CG    0.000  1.000
    2301 POLY   1 POL  CG    CG    0.000  1.000
    2302 POLY   1 POL  CG    CG    0.000  1.000
    2303 POLY   1 POL  CG    CG    0.000  1.000
    2304 POLY   1 POL  CG    CG    0.000  1.000
    2305 POLY   1 POL  CG    CG    0.000  1.000
    2306 POLY   1 POL  CG    CG    0.000  1.000
    2307 POLY   1 POL  CG    CG    0.000  1.000
    2308 POLY   1 POL  CG    CG    0.000  1.000
    2309 POLY   1 POL  CG    CG    0.000  1.000
    2310 POLY   1 POL  CG    CG    0.000  1.000
    2311 POLY   1 POL  CG    CG    0.000  1.000
    2312 POLY   1 POL  CG    CG    0.000  1.000
    2313 POLY   1 POL  CG    CG    0.000  1.000
    2314 POLY   1 POL  CG    CG    0.000  1.000
    2315 POLY   1 POL  CG    CG    0.000  1.000
    2316 POLY   1 POL  CG    CG    0.000  1.000
    2317 POLY   1 POL  CG    CG    0.000  1.000
    2318 POLY   1 POL  CG    CG    0.000  1.000
    2319 POLY   1 POL  CG    CG    0.000  1.000
    2320 POLY   1 POL  CG    CG    0.000  1.000
    2321 POLY   1 POL  CG    CG    0.000  1.000
    2322 POLY   1 POL  CG    CG    0.000  1.000
    2323 POLY   1 POL  CG    CG    0.000  1.000
    2324 POLY   1 POL  CG    CG    0.000  1.000
    2325 POLY   1 POL  CG    CG    0.000  1.000
    2326 POLY   1 POL  CG    CG    0.000  1.000
    2327 POLY   1 POL  CG    CG    0.000  1.000
    2328 POLY   1 POL  CG    CG    0.000  1.000
    2329 POLY   1 POL  CG    CG    0.000  1.000
    2330 POLY   1 POL  CG    CG    0.000  1.000
    2331 POLY   1 POL  CG    CG    0.000  1.000
    2332 POLY   1 POL  CG    CG    0.000  1.000
    2333 POLY   1 POL  CG    CG    0.000  1.000
    2334 POLY   1 POL  CG    CG    0.000  1.000
    2335 POLY   1 POL  CG    CG    0.000  1.000
    2336 POLY   1 POL  CG    CG    0.000  1.000
    2337 POLY   1 POL  CG    CG    0.000  1.000
    2338 POLY   1 POL  CG    CG    0.000  1.000
    2339 POLY   1 POL  CG    CG    0.000  1.000
    2340 POLY   1 POL  CG    CG    0.000  1.000
    2341 POLY   1 POL  CG    CG    0.000  1.000
    2342 POLY   1 POL  CG    CG    0.000  1.000
    2343 POLY   1 POL  CG    CG    0.000  1.000
    2344 POLY   1 POL  CG    CG    0.000  1.000
    2345 POLY   1 POL  CG    CG    0.000  1.000
    2346 POLY   1 POL  CG    CG    0.000  1.000
    2347 POLY   1 POL  CG    CG    0.000  1.000
    2348 POLY   1 POL  CG    CG    0.000  1.000
    2349 POLY   1 POL  CG    CG    0.000  1.000
    2350 POLY   1 POL  CG    CG    0.000  1.000
    2351 POLY   1 POL  CG    CG    0.000  1.000
    2352 POLY   1 POL  CG    CG    0.000  1.000
    2353 POLY   1 POL  CG    CG    0.000  1.000
    2354 POLY   1 POL  CG    CG    0.000  1.000
    2355 POLY   1 POL  CG    CG    0.000  1.000
    2356 POLY   1 POL  CG    CG    0.000  1.000
    2357 POLY   1 POL  CG    CG    0.000  1.000
    2358 POLY   1 POL  CG    CG    0.000  1.000
    2359 POLY   1 POL  CG    CG    0.000  1.000
    2360 POLY   1 POL  CG    CG    0.000  1.000
    2361 POLY   1 POL  CG    CG    0.000  1.000
    2362 POLY   1 POL  CG    CG    0.000  1.000
    2363 POLY   1 POL  CG    CG    0.000  1.000
    2364 POLY   1 POL  CG    CG    0.000  1.000
    2365 POLY   1 POL  CG    CG    0.000  1.000
    2366 POLY   1 POL  CG    CG    0.000  1.000
    2367 POLY   1 POL  CG    CG    0.000  1.000
    2368 POLY   1 POL  CG    CG    0.000  1.000
    2369 POLY   1 POL  CG    CG    0.000  1.000
    2370 POLY   1 POL  CG    CG    0.000  1.000
    2371 POLY   1 POL  CG    CG    0.000  1.000
    2372 POLY   1 POL  CG    CG    0.000  1.000
    2373 POLY   1 POL  CG    CG    0.000  1.000
    2374 POLY   1 POL  CG    CG    0.000  1.000
    2375 POLY   1 POL  CG    CG    0.000  1.000
    2376 POLY   1 POL  CG    CG    0.000  1.000
    2377 POLY   1 POL  CG    CG    0.000  1.000
    2378 POLY   1 POL  CG    CG    0.000  1.000
    2379 POLY   1 POL  CG    CG    0.000  1.000
    2380 POLY   1 POL  CG    CG    0.000  1.000
    2381 POLY   1 POL  CG    CG    0.000  1.000
    2382 POLY   1 POL  CG    CG    0.000  1.000
    2383 POLY   1 POL  CG    CG    0.000  1.000
    2384 POLY   1 POL  CG    CG    0.000  1.000
    2385 POLY   1 POL  CG    CG    0.000  1.000
    2386 POLY   1 POL  CG    CG    0.000  1.000
    2387 POLY   1 POL  CG    CG    0.000  1.000
    2388 POLY   1 POL  CG    CG    0.000  1.000
    2389 POLY   1 POL  CG    CG    0.000  1.000
    2390 POLY   1 POL  CG    CG    0.000  1.000
    2391 POLY   1 POL  CG    CG    0.000  1.000
    2392 POLY   1 POL  CG    CG    0.000  1.000
    2393 POLY   1 POL  CG    CG    0.000  1.000
    2394 POLY   1 POL  CG    CG    0.000  1.000
    2395 POLY   1 POL  CG    CG    0.000  1.000
    2396 POLY   1 POL  CG    CG    0.000  1.000
    2397 POLY   1 POL  CG    CG    0.000  1.000
    2398 POLY   1 POL  CG    CG    0.000  1.000
    2399 POLY   1 POL  CG    CG    0.000  1.000
    2400 POLY   1 POL  CG    CG    0.000  1.000
    2401 POLY   1 POL  CG    CG    0.000  1.000
    2402 POLY   1 POL  CG    CG    0.000  1.000
    2403 POLY   1 POL  CG    CG    0.000  1.000
    2404 POLY   1 POL  CG    CG    0.000  1.000
    2405 POLY   1 POL  CG    CG    0.000  1.000
    2406 POLY   1 POL  CG    CG    0.000  1.000
    2407 POLY   1 POL  CG    CG    0.000  1.000
    2408 POLY   1 POL  CG    CG    0.000  1.000
    2409 POLY   1 POL  CG    CG    0.000  1.000
    2410 POLY   1 POL  CG    CG    0.000  1.000
    2411 POLY   1 POL  CG    CG    0.000  1.000
    2412 POLY   1 POL  CG    CG    0.000  1.000
    2413 POLY   1 POL  CG    CG    0.000  1.000
    2414 POLY   1 POL  CG    CG    0.000  1.000
    2415 POLY   1 POL  CG    CG    0.000  1.000
    2416 POLY   1 POL  CG    CG    0.000  1.000
    2417 POLY   1 POL  CG    CG    0.000  1.000
    2418 POLY   1 POL  CG    CG    0.000  1.000
    2419 POLY   1 POL  CG    CG    0.000  1.000
    2420 POLY   1 POL  CG    CG    0.000  1.000
    2421 POLY   1 POL  CG    CG    0.000  1.000
    2422 POLY   1 POL  CG    CG    0.000  1.000
    2423 POLY   1 POL  CG    CG    0.000  1.000
    2424 POLY   1 POL  CG    CG    0.000  1.000
    2425 POLY   1 POL  CG    CG    0.000  1.000
    2426 POLY   1 POL  CG    CG    0.000  1.000
    2427 POLY   1 POL  CG    CG    0.000  1.000
    2428 POLY   1 POL  CG    CG    0.000  1.000
    2429 POLY   1 POL  CG    CG    0.000  1.000
    2430 POLY   1 POL  CG    CG    0.000  1.000
    2431 POLY   1 POL  CG    CG    0.000  1.000
    2432 POLY   1 POL  CG    CG    0.000  1.000
    2433 POLY   1 POL  CG    CG    0.000  1.000
    2434 POLY   1 POL  CG    CG    0.000  1.000
    2435 POLY   1 POL  CG    CG    0.000  1.000
    2436 POLY   1 POL  CG    CG    0.000  1.000
    2437 POLY   1 POL  CG    CG    0.000  1.000
    2438 POLY   1 POL  CG    CG    0.000  1.000
    2439 POLY   1 POL  CG    CG    0.000  1.000
    2440 POLY   1 POL  CG    CG    0.000  1.000
    2441 POLY   1 POL  CG    CG    0.000  1.000
    2442 POLY   1 POL  CG    CG    0.000  1.000
    2443 POLY   1 POL  CG    CG    0.000  1.000
    2444 POLY   1 POL  CG    CG    0.000  1.000
    2445 POLY   1 POL  CG    CG    0.000  1.000
    2446 POLY   1 POL  CG    CG    0.000  1.000
    2447 POLY   1 POL  CG    CG    0.000  1.000
    2448 POLY   1 POL  CG    CG    0.000  1.000
    2449 POLY   1 POL  CG    CG    0.000  1.000
    2450 POLY   1 POL  CG    CG    0.000  1.000
    2451 POLY   1 POL  CG    CG    0.000  1.000
    2452 POLY   1 POL  CG    CG    0.000  1.000
    2453 POLY   1 POL  CG    CG    0.000  1.000
    2454 POLY   1 POL  CG    CG    0.000  1.000
    2455 POLY   1 POL  CG    CG    0.000  1.000
    2456 POLY   1 POL  CG    CG    0.000  1.000
    2457 POLY   1 POL  CG    CG    0.000  1.000
    2458 POLY   1 POL  CG    CG    0.000  1.000
    2459 POLY   1 POL  CG    CG    0.000  1.000
    2460 POLY   1 POL  CG    CG    0.000  1.000
    2461 POLY   1 POL  CG    CG    0.000  1.000
    2462 POLY   1 POL  CG    CG    0.000  1.000
    2463 POLY   1 POL  CG    CG    0.000  1.000
    2464 POLY   1 POL  CG    CG    0.000  1.000
    2465 POLY   1 POL  CG    CG    0.000  1.000
    2466 POLY   1 POL  CG    CG    0.000  1.000
    2467 POLY   1 POL  CG    CG    0.000  1.000
    2468 POLY   1 POL  CG    CG    0.000  1.000
    2469 POLY   1 POL  CG    CG    0.000  1.000
    2470 POLY   1 POL  CG    CG    0.000  1.000
    2471 POLY   1 POL  CG    CG    0.000  1.000
    2472 POLY   1 POL  CG    CG    0.000  1.000
    2473 POLY   1 POL  CG    CG    0.000  1.000
    2474 POLY   1 POL  CG    CG    0.000  1.000
    2475 POLY   1 POL  CG    CG    0.000  1.000
    2476 POLY   1 POL  CG    CG    0.000  1.000
    2477 POLY   1 POL  CG    CG    0.000  1.000
    2478 POLY   1 POL  CG    CG    0.000  1.000
    2479 POLY   1 POL  CG    CG    0.000  1.000
    2480 POLY   1 POL  CG    CG    0.000  1.000
    2481 POLY   1 POL  CG    CG    0.000  1.000
    2482 POLY   1 POL  CG    CG    0.000  1.000
    2483 POLY   1 POL  CG    CG    0.000  1.000
    2484 POLY   1 POL  CG    CG    0.000  1.000
    2485 POLY   1 POL  CG    CG    0.000  1.000
    2486 POLY   1 POL  CG    CG    0.000  1.000
    2487 POLY   1 POL  CG    CG    0.000  1.000
    2488 POLY   1 POL  CG    CG    0.000  1.000
    2489 POLY   1 POL  CG    CG    0.000  1.000
    2490 POLY   1 POL  CG    CG    0.000  1.000
    2491 POLY   1 POL  CG    CG    0.000  1.000
    2492 POLY   1 POL  CG    CG    0.000  1.000
    2493 POLY   1 POL  CG    CG    0.000  1.000
    2494 POLY   1 POL  CG    CG    0.000  1.000
    2495 POLY   1 POL  CG    CG    0.000  1.000
    2496 POLY   1 POL  CG    CG    0.000  1.000
    2497 POLY   1 POL  CG    CG    0.000  1.000
    2498 POLY   1 POL  CG    CG    0.000  1.000
    2499 POLY   1 POL  CG    CG    0.000  1.000
    2500 POLY   1 POL  CG    CG    0.000  1.000
    2501 POLY   1 POL  CG    CG    0.000  1.000
    2502 POLY   1 POL  CG    CG    0.000  1.000
    2503 POLY   1 POL  CG    CG    0.000  1.000
    2504 POLY   1 POL  CG    CG    0.000  1.000
    2505 POLY   1 POL  CG    CG    0.000  1.000
    2506 POLY   1 POL  CG    CG    0.000  1.000
    2507 POLY   1 POL  CG    CG    0.000  1.000
    2508 POLY   1 POL  CG    CG    0.000  1.000
    2509 POLY   1 POL  CG    CG    0.000  1.000
    2510 POLY   1 POL  CG    CG    0.000  1.000
    2511 POLY   1 POL  CG    CG    0.000  1.000
    2512 POLY   1 POL  CG    CG    0.000  1.000
    2513 POLY   1 POL  CG    CG    0.000  1.000
    2514 POLY   1 POL  CG    CG    0.000  1.000
    2515 POLY   1 POL  CG    CG    0.000  1.000
    2516 POLY   1 POL  CG    CG    0.000  1.000
    2517 POLY   1 POL  CG    CG    0.000  1.000
    2518 POLY   1 POL  CG    CG    0.000  1.000
    2519 POLY   1 POL  CG    CG    0.000  1.000
    2520 POLY   1 POL  CG    CG    0.000  1.000
    2521 POLY   1 POL  CG    CG    0.000  1.000
    2522 POLY   1 POL  CG    CG    0.000  1.000
    2523 POLY   1 POL  CG    CG    0.000  1.000
    2524 POLY   1 POL  CG    CG    0.000  1.000
    2525 POLY   1 POL  CG    CG    0.000  1.000
    2526 POLY   1 POL  CG    CG    0.000  1.000
    2527 POLY   1 POL  CG    CG    0.000  1.000
    2528 POLY   1 POL  CG    CG    0.000  1.000
    2529 POLY   1 POL  CG    CG    0.000  1.000
    2530 POLY   1 POL  CG    CG    0.000  1.000
    2531 POLY   1 POL  CG    CG    0.000  1.000
    2532 POLY   1 POL  CG    CG    0.000  1.000
    2533 POLY   1 POL  CG    CG    0.000  1.000
    2534 POLY   1 POL  CG    CG    0.000  1.000
    2535 POLY   1 POL  CG    CG    0.000  1.000
    2536 POLY   1 POL  CG    CG    0.000  1.000
    2537 POLY   1 POL  CG    CG    0.000  1.000
    2538 POLY   1 POL  CG    CG    0.000  1.000
    2539 POLY   1 POL  CG    CG    0.000  1.000
    2540 POLY   1 POL  CG    CG    0.000  1.000
    2541 POLY   1 POL  CG    CG    0.000  1.000
    2542 POLY   1 POL  CG    CG    0.000  1.000
    2543 POLY   1 POL  CG    CG    0.000  1.000
    2544 POLY   1 POL  CG    CG    0.000  1.000
    2545 POLY   1 POL  CG    CG    0.000  1.000
    2546 POLY   1 POL  CG    CG    0.000  1.000
    2547 POLY   1 POL  CG    CG    0.000  1.000
    2548 POLY   1 POL  CG    CG    0.000  1.000
    2549 POLY   1 POL  CG    CG    0.000  1.000
    2550 POLY   1 POL  CG    CG    0.000  1.000
    2551 POLY   1 POL  CG    CG    0.000  1.000
    2552 POLY   1 POL  CG    CG    0.000  1.000
    2553 POLY   1 POL  CG    CG    0.000  1.000
    2554 POLY   1 POL  CG    CG    0.000  1.000
    2555 POLY   1 POL  CG    CG    0.000  1.000
    2556 POLY   1 POL  CG    CG    0.000  1.000
    2557 POLY   1 POL  CG    CG    0.000  1.000
    2558 POLY   1 POL  CG    CG    0.000  1.000
    2559 POLY   1 POL  CG    CG    0.000  1.000
    2560 POLY   1 POL  CG    CG    0.000  1.000
    2561 POLY   1 POL  CG    CG    0.000  1.000
    2562 POLY   1 POL  CG    CG    0.000  1.000
    2563 POLY   1 POL  CG    CG    0.000  1.000
    2564 POLY   1 POL  CG    CG    0.000  1.000
    2565 POLY   1 POL  CG    CG    0.000  1.000
    2566 POLY   1 POL  CG    CG    0.000  1.000
    2567 POLY   1 POL  CG    CG    0.000  1.000
    2568 POLY   1 POL  CG    CG    0.000  1.000
    2569 POLY   1 POL  CG    CG    0.000  1.000
    2570 POLY   1 POL  CG    CG    0.000  1.000
    2571 POLY   1 POL  CG    CG    0.000  1.000
    2572 POLY   1 POL  CG    CG    0.000  1.000
    2573 POLY   1 POL  CG    CG    0.000  1.000
    2574 POLY   1 POL  CG    CG    0.000  1.000
    2575 POLY   1 POL  CG    CG    0.000  1.000
    2576 POLY   1 POL  CG    CG    0.000  1.000
    2577 POLY   1 POL  CG    CG    0.000  1.000
    2578 POLY   1 POL  CG    CG    0.000  1.000
    2579 POLY   1 POL  CG    CG    0.000  1.000
    2580 POLY   1 POL  CG    CG    0.000  1.000
    2581 POLY   1 POL  CG    CG    0.000  1.000
    2582 POLY   1 POL  CG    CG    0.000  1.000
    2583 POLY   1 POL  CG    CG    0.000  1.000
    2584 POLY   1 POL  CG    CG    0.000  1.000
    2585 POLY   1 POL  CG    CG    0.000  1.000
    2586 POLY   1 POL  CG    CG    0.000  1.000
    2587 POLY   1 POL  CG    CG    0.000  1.000
    2588 POLY   1 POL  CG    CG    0.000  1.000
    2589 POLY   1 POL  CG    CG    0.000  1.000
    2590 POLY   1 POL  CG    CG    0.000  1.000
    2591 POLY   1 POL  CG    CG    0.000  1.000
    2592 POLY   1 POL  CG    CG    0.000  1.000
    2593 POLY   1 POL  CG    CG    0.000  1.000
    2594 POLY   1 POL  CG    CG    0.000  1.000
    2595 POLY   1 POL  CG    CG    0.000  1.000
    2596 POLY   1 POL  CG    CG    0.000  1.000
    2597 POLY   1 POL  CG    CG    0.000  1.000
    2598 POLY   1 POL  CG    CG    0.000  1.000
    2599 POLY   1 POL  CG    CG    0.000  1.000
    2600 POLY   1 POL  CG    CG    0.000  1.000
    2601 POLY   1 POL  CG    CG    0.000  1.000
    2602 POLY   1 POL  CG    CG    0.000  1.000
    2603 POLY   1 POL  CG    CG    0.000  1.000
    2604 POLY   1 POL  CG    CG    0.000  1.000
    2605 POLY   1 POL  CG    CG    0.000  1.000
    2606 POLY   1 POL  CG    CG    0.000  1.000
    2607 POLY   1 POL  CG    CG    0.000  1.000
    2608 POLY   1 POL  CG    CG    0.000  1.000
    2609 POLY   1 POL  CG    CG    0.000  1.000
    2610 POLY   1 POL  CG    CG    0.000  1.000
    2611 POLY   1 POL  CG    CG    0.000  1.000
    2612 POLY   1 POL  CG    CG    0.000  1.000
    2613 POLY   1 POL  CG    CG    0.000  1.000
    2614 POLY   1 POL  CG    CG    0.000  1.000
    2615 POLY   1 POL  CG    CG    0.000  1.000
    2616 POLY   1 POL  CG    CG    0.000  1.000
    2617 POLY   1 POL  CG    CG    0.000  1.000
    2618 POLY   1 POL  CG    CG    0.000  1.000
    2619 POLY   1 POL  CG    CG    0.000  1.000
    2620 POLY   1 POL  CG    CG    0.000  1.000
    2621 POLY   1 POL  CG    CG    0.000  1.000
    2622 POLY   1 POL  CG    CG    0.000  1.000
    2623 POLY   1 POL  CG    CG    0.000  1.000
    2624 POLY   1 POL  CG    CG    0.000  1.000
    2625 POLY   1 POL  CG    CG    0.000  1.000
    2626 POLY   1 POL  CG    CG    0.000  1.000
    2627 POLY   1 POL  CG    CG    0.000  1.000
    2628 POLY   1 POL  CG    CG    0.000  1.000
    2629 POLY   1 POL  CG    CG    0.000  1.000
    2630 POLY   1 POL  CG    CG    0.000  1.000
    2631 POLY   1 POL  CG    CG    0.000  1.000
    2632 POLY   1 POL  CG    CG    0.000  1.000
    2633 POLY   1 POL  CG    CG    0.000  1.000
    2634 POLY   1 POL  CG    CG    0.000  1.000
    2635 POLY   1 POL  CG    CG    0.000  1.000
    2636 POLY   1 POL  CG    CG    0.000  1.000
    2637 POLY   1 POL  CG    CG    0.000  1.000
    2638 POLY   1 POL  CG    CG    0.000  1.000
    2639 POLY   1 POL  CG    CG    0.000  1.000
    2640 POLY   1 POL  CG    CG    0.000  1.000
    2641 POLY   1 POL  CG    CG    0.000  1.000
    2642 POLY   1 POL  CG    CG    0.000  1.000
    2643 POLY   1 POL  CG    CG    0.000  1.000
    2644 POLY   1 POL  CG    CG    0.000  1.000
    2645 POLY   1 POL  CG    CG    0.000  1.000
    2646 POLY   1 POL  CG    CG    0.000  1.000
    2647 POLY   1 POL  CG    CG    0.000  1.000
    2648 POLY   1 POL  CG    CG    0.000  1.000
    2649 POLY   1 POL  CG    CG    0.000  1.000
    2650 POLY   1 POL  CG    CG    0.000  1.000
    2651 POLY   1 POL  CG    CG    0.000  1.000
    2652 POLY   1 POL  CG    CG    0.000  1.000
    2653 POLY   1 POL  CG    CG    0.000  1.000
    2654 POLY   1 POL  CG    CG    0.000  1.000
    2655 POLY   1 POL  CG    CG    0.000  1.000
    2656 POLY   1 POL  CG    CG    0.000  1.000
    2657 POLY   1 POL  CG    CG    0.000  1.000
    2658 POLY   1 POL  CG    CG    0.000  1.000
    2659 POLY   1 POL  CG    CG    0.000  1.000
    2660 POLY   1 POL  CG    CG    0.000  1.000
    2661 POLY   1 POL  CG    CG    0.000  1.000
    2662 POLY   1 POL  CG    CG    0.000  1.000
    2663 POLY   1 POL  CG    CG    0.000  1.000
    2664 POLY   1 POL  CG    CG    0.000  1.000
    2665 POLY   1 POL  CG    CG    0.000  1.000
    2666 POLY   1 POL  CG    CG    0.000  1.000
    2667 POLY   1 POL  CG    CG    0.000  1.000
    2668 POLY   1 POL  CG    CG    0.000  1.000
    2669 POLY   1 POL  CG    CG    0.000  1.000
    2670 POLY   1 POL  CG    CG    0.000  1.000
    2671 POLY   1 POL  CG    CG    0.000  1.000
    2672 POLY   1 POL  CG    CG    0.000  1.000
    2673 POLY   1 POL  CG    CG    0.000  1.000
    2674 POLY   1 POL  CG    CG    0.000  1.000
    2675 POLY   1 POL  CG    CG    0.000  1.000
    2676 POLY   1 POL  CG    CG    0.000  1.000
    2677 POLY   1 POL  CG    CG    0.000  1.000
    2678 POLY   1 POL  CG    CG    0.000  1.000
    2679 POLY   1 POL  CG    CG    0.000  1.000
    2680 POLY   1 POL  CG    CG    0.000  1.000
    2681 POLY   1 POL  CG    CG    0.000  1.000
    2682 POLY   1 POL  CG    CG    0.000  1.000
    2683 POLY   1 POL  CG    CG    0.000  1.000
    2684 POLY   1 POL  CG    CG    0.000  1.000
    2685 POLY   1 POL  CG    CG    0.000  1.000
    2686 POLY   1 POL  CG    CG    0.000  1.000
    2687 POLY   1 POL  CG    CG    0.000  1.000
    2688 POLY   1 POL  CG    CG    0.000  1.000
    2689 POLY   1 POL  CG    CG    0.000  1.000
    2690 POLY   1 POL  CG    CG    0.000  1.000
    2691 POLY   1 POL  CG    CG    0.000  1.000
    2692 POLY   1 POL  CG    CG    0.000  1.000
    2693 POLY   1 POL  CG    CG    0.000  1.000
    2694 POLY   1 POL  CG    CG    0.000  1.000
    2695 POLY   1 POL  CG    CG    0.000  1.000
    2696 POLY   1 POL  CG    CG    0.000  1.000
    2697 POLY   1 POL  CG    CG    0.000  1.000
    2698 POLY   1 POL  CG    CG    0.000  1.000
    2699 POLY   1 POL  CG    CG    0.000  1.000
    2700 POLY   1 POL  CG    CG    0.000  1.000
    2701 POLY   1 POL  CG    CG    0.000  1.000
    2702 POLY   1 POL  CG    CG    0.000  1.000
    2703 POLY   1 POL  CG    CG    0.000  1.000
    2704 POLY   1 POL  CG    CG    0.000  1.000
    2705 POLY   1 POL  CG    CG    0.000  1.000
    2706 POLY   1 POL  CG    CG    0.000  1.000
    2707 POLY   1 POL  CG    CG    0.000  1.000
    2708 POLY   1 POL  CG    CG    0.000  1.000
    2709 POLY   1 POL  CG    CG    0.000  1.000
    2710 POLY   1 POL  CG    CG    0.000  1.000
    2711 POLY   1 POL  CG    CG    0.000  1.000
    2712 POLY   1 POL  CG    CG    0.000  1.000
    2713 POLY   1 POL  CG    CG    0.000  1.000
    2714 POLY   1 POL  CG    CG    0.000  1.000
    2715 POLY   1 POL  CG    CG    0.000  1.000
    2716 POLY   1 POL  CG    CG    0.000  1.000
    2717 POLY   1 POL  CG    CG    0.000  1.000
    2718 POLY   1 POL  CG    CG    0.000  1.000
    2719 POLY   1 POL  CG    CG    0.000  1.000
    2720 POLY   1 POL  CG    CG    0.000  1.000
    2721 POLY   1 POL  CG    CG    0.000  1.000
    2722 POLY   1 POL  CG    CG    0.000  1.000
    2723 POLY   1 POL  CG    CG    0.000  1.000
    2724 POLY   1 POL  CG    CG    0.000  1.000
    2725 POLY   1 POL  CG    CG    0.000  1.000
    2726 POLY   1 POL  CG    CG    0.000  1.000
    2727 POLY   1 POL  CG    CG    0.000  1.000
    2728 POLY   1 POL  CG    CG    0.000  1.000
    2729 POLY   1 POL  CG    CG    0.000  1.000
    2730 POLY   1 POL  CG    CG    0.000  1.000
    2731 POLY   1 POL  CG    CG    0.000  1.000
    2732 POLY   1 POL  CG    CG    0.000  1.000
    2733 POLY   1 POL  CG    CG    0.000  1.000
    2734 POLY   1 POL  CG    CG    0.000  1.000
    2735 POLY   1 POL  CG    CG    0.000  1.000
    2736 POLY   1 POL  CG    CG    0.000  1.000
    2737 POLY   1 POL  CG    CG    0.000  1.000
    2738 POLY   1 POL  CG    CG    0.000  1.000
    2739 POLY   1 POL  CG    CG    0.000  1.000
    2740 POLY   1 POL  CG    CG    0.000  1.000
    2741 POLY   1 POL  CG    CG    0.000  1.000
    2742 POLY   1 POL  CG    CG    0.000  1.000
    2743 POLY   1 POL  CG    CG    0.000  1.000
    2744 POLY   1 POL  CG    CG    0.000  1.000
    2745 POLY   1 POL  CG    CG    0.000  1.000
    2746 POLY   1 POL  CG    CG    0.000  1.000
    2747 POLY   1 POL  CG    CG    0.000  1.000
    2748 POLY   1 POL  CG    CG    0.000  1.000
    2749 POLY   1 POL  CG    CG    0.000  1.000
    2750 POLY   1 POL  CG    CG    0.000  1.000
    2751 POLY   1 POL  CG    CG    0.000  1.000
    2752 POLY   1 POL  CG    CG    0.000  1.000
    2753 POLY   1 POL  CG    CG    0.000  1.000
    2754 POLY   1 POL  CG    CG    0.000  1.000
    2755 POLY   1 POL  CG    CG    0.000  1.000
    2756 POLY   1 POL  CG    CG    0.000  1.000
    2757 POLY   1 POL  CG    CG    0.000  1.000
    2758 POLY   1 POL  CG    CG    0.000  1.000
    2759 POLY   1 POL  CG    CG    0.000  1.000
    2760 POLY   1 POL  CG    CG    0.000  1.000
    2761 POLY   1 POL  CG    CG    0.000  1.000
    2762 POLY   1 POL  CG    CG    0.000  1.000
    2763 POLY   1 POL  CG    CG    0.000  1.000
    2764 POLY   1 POL  CG    CG    0.000  1.000
    2765 POLY   1 POL  CG    CG    0.000  1.000
    2766 POLY   1 POL  CG    CG    0.000  1.000
    2767 POLY   1 POL  CG    CG    0.000  1.000
    2768 POLY   1 POL  CG    CG    0.000  1.000
    2769 POLY   1 POL  CG    CG    0.000  1.000
    2770 POLY   1 POL  CG    CG    0.000  1.000
    2771 POLY   1 POL  CG    CG    0.000  1.000
    2772 POLY   1 POL  CG    CG    0.000  1.000
    2773 POLY   1 POL  CG    CG    0.000  1.000
    2774 POLY   1 POL  CG    CG    0.000  1.000
    2775 POLY   1 POL  CG    CG    0.000  1.000
    2776 POLY   1 POL  CG    CG    0.000  1.000
    2777 POLY   1 POL  CG    CG    0.000  1.000
    2778 POLY   1 POL  CG    CG    0.000  1.000
    2779 POLY   1 POL  CG    CG    0.000  1.000
    2780 POLY   1 POL  CG    CG    0.000  1.000
    2781 POLY   1 POL  CG    CG    0.000  1.000
    2782 POLY   1 POL  CG    CG    0.000  1.000
    2783 POLY   1 POL  CG    CG    0.000  1.000
    2784 POLY   1 POL  CG    CG    0.000  1.000
    2785 POLY   1 POL  CG    CG    0.000  1.000
    2786 POLY   1 POL  CG    CG    0.000  1.000
    2787 POLY   1 POL  CG    CG    0.000  1.000
    2788 POLY   1 POL  CG    CG    0.000  1.000
    2789 POLY   1 POL  CG    CG    0.000  1.000
    2790 POLY   1 POL  CG    CG    0.000  1.000
    2791 POLY   1 POL  CG    CG    0.000  1.000
    2792 POLY   1 POL  CG    CG    0.000  1.000
    2793 POLY   1 POL  CG    CG    0.000  1.000
    2794 POLY   1 POL  CG    CG    0.000  1.000
    2795 POLY   1 POL  CG    CG    0.000  1.000
    2796 POLY   1 POL  CG    CG    0.000  1.000
    2797 POLY   1 POL  CG    CG    0.000  1.000
    2798 POLY   1 POL  CG    CG    0.000  1.000
    2799 POLY   1 POL  CG    CG    0.000  1.000
    2800 POLY   1 POL  CG    CG    0.000  1.000
    2801 POLY   1 POL  CG    CG    0.000  1.000
    2802 POLY   1 POL  CG    CG    0.000  1.000
    2803 POLY   1 POL  CG    CG    0.000  1.000
    2804 POLY   1 POL  CG    CG    0.000  1.000
    2805 POLY   1 POL  CG    CG    0.000  1.000
    2806 POLY   1 POL  CG    CG    0.000  1.000
    2807 POLY   1 POL  CG    CG    0.000  1.000
    2808 POLY   1 POL  CG    CG    0.000  1.000
    2809 POLY   1 POL  CG    CG    0.000  1.000
    2810 POLY   1 POL  CG    CG    0.000  1.000
    2811 POLY   1 POL  CG    CG    0.000  1.000
    2812 POLY   1 POL  CG    CG    0.000  1.000
    2813 POLY   1 POL  CG    CG    0.000  1.000
    2814 POLY   1 POL  CG    CG    0.000  1.000
    2815 POLY   1 POL  CG    CG    0.000  1.000
    2816 POLY   1 POL  CG    CG    0.000  1.000
    2817 POLY   1 POL  CG    CG    0.000  1.000
    2818 POLY   1 POL  CG    CG    0.000  1.000
    2819 POLY   1 POL  CG    CG    0.000  1.000
    2820 POLY   1 POL  CG    CG    0.000  1.000
    2821 POLY   1 POL  CG    CG    0.000  1.000
    2822 POLY   1 POL  CG    CG    0.000  1.000
    2823 POLY   1 POL  CG    CG    0.000  1.000
    2824 POLY   1 POL  CG    CG    0.000  1.000
    2825 POLY   1 POL  CG    CG    0.000  1.000
    2826 POLY   1 POL  CG    CG    0.000  1.000
    2827 POLY   1 POL  CG    CG    0.000  1.000
    2828 POLY   1 POL  CG    CG    0.000  1.000
    2829 POLY   1 POL  CG    CG    0.000  1.000
    2830 POLY   1 POL  CG    CG    0.000  1.000
    2831 POLY   1 POL  CG    CG    0.000  1.000
    2832 POLY   1 POL  CG    CG    0.000  1.000
    2833 POLY   1 POL  CG    CG    0.000  1.000
    2834 POLY   1 POL  CG    CG    0.000  1.000
    2835 POLY   1 POL  CG    CG    0.000  1.000
    2836 POLY   1 POL  CG    CG    0.000  1.000
    2837 POLY   1 POL  CG    CG    0.000  1.000
    2838 POLY   1 POL  CG    CG    0.000  1.000
    2839 POLY   1 POL  CG    CG    0.000  1.000
    2840 POLY   1 POL  CG    CG    0.000  1.000
    2841 POLY   1 POL  CG    CG    0.000  1.000
    2842 POLY   1 POL  CG    CG    0.000  1.000
    2843 POLY   1 POL  CG    CG    0.000  1.000
    2844 POLY   1 POL  CG    CG    0.000  1.000
    2845 POLY   1 POL  CG    CG    0.000  1.000
    2846 POLY   1 POL  CG    CG    0.000  1.000
    2847 POLY   1 POL  CG    CG    0.000  1.000
    2848 POLY   1 POL  CG    CG    0.000  1.000
    2849 POLY   1 POL  CG    CG    0.000  1.000
    2850 POLY   1 POL  CG    CG    0.000  1.000
    2851 POLY   1 POL  CG    CG    0.000  1.000
    2852 POLY   1 POL  CG    CG    0.000  1.000
    2853 POLY   1 POL  CG    CG    0.000  1.000
    2854 POLY   1 POL  CG    CG    0.000  1.000
    2855 POLY   1 POL  CG    CG    0.000  1.000
    2856 POLY   1 POL  CG    CG    0.000  1.000
    2857 POLY   1 POL  CG    CG    0.000  1.000
    2858 POLY   1 POL  CG    CG    0.000  1.000
    2859 POLY   1 POL  CG    CG    0.000  1.000
    2860 POLY   1 POL  CG    CG    0.000  1.000
    2861 POLY   1 POL  CG    CG    0.000  1.000
    2862 POLY   1 POL  CG    CG    0.000  1.000
    2863 POLY   1 POL  CG    CG    0.000  1.000
    2864 POLY   1 POL  CG    CG    0.000  1.000
    2865 POLY   1 POL  CG    CG    0.000  1.000
    2866 POLY   1 POL  CG    CG    0.000  1.000
    2867 POLY   1 POL  CG    CG    0.000  1.000
    2868 POLY   1 POL  CG    CG    0.000  1.000
    2869 POLY   1 POL  CG    CG    0.000  1.000
    2870 POLY   1 POL  CG    CG    0.000  1.000
    2871 POLY   1 POL  CG    CG    0.000  1.000
    2872 POLY   1 POL  CG    CG    0.000  1.000
    2873 POLY   1 POL  CG    CG    0.000  1.000
    2874 POLY   1 POL  CG    CG    0.000  1.000
    2875 POLY   1 POL  CG    CG    0.000  1.000
    2876 POLY   1 POL  CG    CG    0.000  1.000
    2877 POLY   1 POL  CG    CG    0.000  1.000
    2878 POLY   1 POL  CG    CG    0.000  1.000
    2879 POLY   1 POL  CG    CG    0.000  1.000
    2880 POLY   1 POL  CG    CG    0.000  1.000
    2881 POLY   1 POL  CG    CG    0.000  1.000
    2882 POLY   1 POL  CG    CG    0.000  1.000
    2883 POLY   1 POL  CG    CG    0.000  1.000
    2884 POLY   1 POL  CG    CG    0.000  1.000
    2885 POLY   1 POL  CG    CG    0.000  1.000
    2886 POLY   1 POL  CG    CG    0.000  1.000
    2887 POLY   1 POL  CG    CG    0.000  1.000
    2888 POLY   1 POL  CG    CG    0.000  1.000
    2889 POLY   1 POL  CG    CG    0.000  1.000
    2890 POLY   1 POL  CG    CG    0.000  1.000
    2891 POLY   1 POL  CG    CG    0.000  1.000
    2892 POLY   1 POL  CG    CG    0.000  1.000
    2893 POLY   1 POL  CG    CG    0.000  1.000
    2894 POLY   1 POL  CG    CG    0.000  1.000
    2895 POLY   1 POL  CG    CG    0.000  1.000
    2896 POLY   1 POL  CG    CG    0.000  1.000
    2897 POLY   1 POL  CG    CG    0.000  1.000
    2898 POLY   1 POL  CG    CG    0.000  1.000
    2899 POLY   1 POL  CG    CG    0.000  1.000
    2900 POLY   1 POL  CG    CG    0.000  1.000
    2901 POLY   1 POL  CG    CG    0.000  1.000
    2902 POLY   1 POL  CG    CG    0.000  1.000
    2903 POLY   1 POL  CG    CG    0.000  1.000
    2904 POLY   1 POL  CG    CG    0.000  1.000
    2905 POLY   1 POL  CG    CG    0.000  1.000
    2906 POLY   1 POL  CG    CG    0.000  1.000
    2907 POLY   1 POL  CG    CG    0.000  1.000
    2908 POLY   1 POL  CG    CG    0.000  1.000
    2909 POLY   1 POL  CG    CG    0.000  1.000
    2910 POLY   1 POL  CG    CG    0.000  1.000
    2911 POLY   1 POL  CG    CG    0.000  1.000
    2912 POLY   1 POL  CG    CG    0.000  1.000
    2913 POLY   1 POL  CG    CG    0.000  1.000
    2914 POLY   1 POL  CG    CG    0.000  1.000
    2915 POLY   1 POL  CG    CG    0.000  1.000
    2916 POLY   1 POL  CG    CG    0.000  1.000
    2917 POLY   1 POL  CG    CG    0.000  1.000
    2918 POLY   1 POL  CG    CG    0.000  1.000
    2919 POLY   1 POL  CG    CG    0.000  1.000
    2920 POLY   1 POL  CG    CG    0.000  1.000
    2921 POLY   1 POL  CG    CG    0.000  1.000
    2922 POLY   1 POL  CG    CG    0.000  1.000
    2923 POLY   1 POL  CG    CG    0.000  1.000
    2924 POLY   1 POL  CG    CG    0.000  1.000
    2925 POLY   1 POL  CG    CG    0.000  1.000
    2926 POLY   1 POL  CG    CG    0.000  1.000
    2927 POLY   1 POL  CG    CG    0.000  1.000
    2928 POLY   1 POL  CG    CG    0.000  1.000
    2929 POLY   1 POL  CG    CG    0.000  1.000
    2930 POLY   1 POL  CG    CG    0.000  1.000
    2931 POLY   1 POL  CG    CG    0.000  1.000
    2932 POLY   1 POL  CG    CG    0.000  1.000
    2933 POLY   1 POL  CG    CG    0.000  1.000
    2934 POLY   1 POL  CG    CG    0.000  1.000
    2935 POLY   1 POL  CG    CG    0.000  1.000
    2936 POLY   1 POL  CG    CG    0.000  1.000
    2937 POLY   1 POL  CG    CG    0.000  1.000
    2938 POLY   1 POL  CG    CG    0.000  1.000
    2939 POLY   1 POL  CG    CG    0.000  1.000
    2940 POLY   1 POL  CG    CG    0.000  1.000
    2941 POLY   1 POL  CG    CG    0.000  1.000
    2942 POLY   1 POL  CG    CG    0.000  1.000
    2943 POLY   1 POL  CG    CG    0.000  1.000
    2944 POLY   1 POL  CG    CG    0.000  1.000
    2945 POLY   1 POL  CG    CG    0.000  1.000
    2946 POLY   1 POL  CG    CG    0.000  1.000
    2947 POLY   1 POL  CG    CG    0.000  1.000
    2948 POLY   1 POL  CG    CG    0.000  1.000
    2949 POLY   1 POL  CG    CG    0.000  1.000
    2950 POLY   1 POL  CG    CG    0.000  1.000
    2951 POLY   1 POL  CG    CG    0.000  1.000
    2952 POLY   1 POL  CG    CG    0.000  1.000
    2953 POLY   1 POL  CG    CG    0.000  1.000
    2954 POLY   1 POL  CG    CG    0.000  1.000
    2955 POLY   1 POL  CG    CG    0.000  1.000
    2956 POLY   1 POL  CG    CG    0.000  1.000
    2957 POLY   1 POL  CG    CG    0.000  1.000
    2958 POLY   1 POL  CG    CG    0.000  1.000
    2959 POLY   1 POL  CG    CG    0.000  1.000
    2960 POLY   1 POL  CG    CG    0.000  1.000
    2961 POLY   1 POL  CG    CG    0.000  1.000
    2962 POLY   1 POL  CG    CG    0.000  1.000
    2963 POLY   1 POL  CG    CG    0.000  1.000
    2964 POLY   1 POL  CG    CG    0.000  1.000
    2965 POLY   1 POL  CG    CG    0.000  1.000
    2966 POLY   1 POL  CG    CG    0.000  1.000
    2967 POLY   1 POL  CG    CG    0.000  1.000
    2968 POLY   1 POL  CG    CG    0.000  1.000
    2969 POLY   1 POL  CG    CG    0.000  1.000
    2970 POLY   1 POL  CG    CG    0.000  1.000
    2971 POLY   1 POL  CG    CG    0.000  1.000
    2972 POLY   1 POL  CG    CG    0.000  1.000
    2973 POLY   1 POL  CG    CG    0.000  1.000
    2974 POLY   1 POL  CG    CG    0.000  1.000
    2975 POLY   1 POL  CG    CG    0.000  1.000
    2976 POLY   1 POL  CG    CG    0.000  1.000
    2977 POLY   1 POL  CG    CG    0.000  1.000
    2978 POLY   1 POL  CG    CG    0.000  1.000
    2979 POLY   1 POL  CG    CG    0.000  1.000
    2980 POLY   1 POL  CG    CG    0.000  1.000
    2981 POLY   1 POL  CG    CG    0.000  1.000
    2982 POLY   1 POL  CG    CG    0.000  1.000
    2983 POLY   1 POL  CG    CG    0.000  1.000
    2984 POLY   1 POL  CG    CG    0.000  1.000
    2985 POLY   1 POL  CG    CG    0.000  1.000
    2986 POLY   1 POL  CG    CG    0.000  1.000
    2987 POLY   1 POL  CG    CG    0.000  1.000
    2988 POLY   1 POL  CG    CG    0.000  1.000
    2989 POLY   1 POL  CG    CG    0.000  1.000
    2990 POLY   1 POL  CG    CG    0.000  1.000
    2991 POLY   1 POL  CG    CG    0.000  1.000
    2992 POLY   1 POL  CG    CG    0.000  1.000
    2993 POLY   1 POL  CG    CG    0.000  1.000
    2994 POLY   1 POL  CG    CG    0.000  1.000
    2995 POLY   1 POL  CG    CG    0.000  1.000
    2996 POLY   1 POL  CG    CG    0.000  1.000
    2997 POLY   1 POL  CG    CG    0.000  1.000
    2998 POLY   1 POL  CG    CG    0.000  1.000
    2999 POLY   1 POL  CG    CG    0.000  1.000
    3000 POLY   1 POL  CG    CG    0.000  1.000
    3001 POLY   1 POL  CG    CG    0.000  1.000
    3002 POLY   1 POL  CG    CG    0.000  1.000
    3003 POLY   1 POL  CG    CG    0.000  1.000
    3004 POLY   1 POL  CG    CG    0.000  1.000
    3005 POLY   1 POL  CG    CG    0.000  1.000
    3006 POLY   1 POL  CG    CG    0.000  1.000
    3007 POLY   1 POL  CG    CG    0.000  1.000
    3008 POLY   1 POL  CG    CG    0.000  1.000
    3009 POLY   1 POL  CG    CG    0.000  1.000
    3010 POLY   1 POL  CG    CG    0.000  1.000
    3011 POLY   1 POL  CG    CG    0.000  1.000
    3012 POLY   1 POL  CG    CG    0.000  1.000
    3013 POLY   1 POL  CG    CG    0.000  1.000
    3014 POLY   1 POL  CG    CG    0.000  1.000
    3015 POLY   1 POL  CG    CG    0.000  1.000
    3016 POLY   1 POL  CG    CG    0.000  1.000
    3017 POLY   1 POL  CG    CG    0.000  1.000
    3018 POLY   1 POL  CG    CG    0.000  1.000
    3019 POLY   1 POL  CG    CG    0.000  1.000
    3020 POLY   1 POL  CG    CG    0.000  1.000
    3021 POLY   1 POL  CG    CG    0.000  1.000
    3022 POLY   1 POL  CG    CG    0.000  1.000
    3023 POLY   1 POL  CG    CG    0.000  1.000
    3024 POLY   1 POL  CG    CG    0.000  1.000
    3025 POLY   1 POL  CG    CG    0.000  1.000
    3026 POLY   1 POL  CG    CG    0.000  1.000
    3027 POLY   1 POL  CG    CG    0.000  1.000
    3028 POLY   1 POL  CG    CG    0.000  1.000
    3029 POLY   1 POL  CG    CG    0.000  1.000
    3030 POLY   1 POL  CG    CG    0.000  1.000
    3031 POLY   1 POL  CG    CG    0.000  1.000
    3032 POLY   1 POL  CG    CG    0.000  1.000
    3033 POLY   1 POL  CG    CG    0.000  1.000
    3034 POLY   1 POL  CG    CG    0.000  1.000
    3035 POLY   1 POL  CG    CG    0.000  1.000
    3036 POLY   1 POL  CG    CG    0.000  1.000
    3037 POLY   1 POL  CG    CG    0.000  1.000
    3038 POLY   1 POL  CG    CG    0.000  1.000
    3039 POLY   1 POL  CG    CG    0.000  1.000
    3040 POLY   1 POL  CG    CG    0.000  1.000
    3041 POLY   1 POL  CG    CG    0.000  1.000
    3042 POLY   1 POL  CG    CG    0.000  1.000
    3043 POLY   1 POL  CG    CG    0.000  1.000
    3044 POLY   1 POL  CG    CG    0.000  1.000
    3045 POLY   1 POL  CG    CG    0.000  1.000
    3046 POLY   1 POL  CG    CG    0.000  1.000
    3047 POLY   1 POL  CG    CG    0.000  1.000
    3048 POLY   1 POL  CG    CG    0.000  1.000
    3049 POLY   1 POL  CG    CG    0.000  1.000
    3050 POLY   1 POL  CG    CG    0.000  1.000
    3051 POLY   1 POL  CG    CG    0.000  1.000
    3052 POLY   1 POL  CG    CG    0.000  1.000
    3053 POLY   1 POL  CG    CG    0.000  1.000
    3054 POLY   1 POL  CG    CG    0.000  1.000
    3055 POLY   1 POL  CG    CG    0.000  1.000
    3056 POLY   1 POL  CG    CG    0.000  1.000
    3057 POLY   1 POL  CG    CG    0.000  1.000
    3058 POLY   1 POL  CG    CG    0.000  1.000
    3059 POLY   1 POL  CG    CG    0.000  1.000
    3060 POLY   1 POL  CG    CG    0.000  1.000
    3061 POLY   1 POL  CG    CG    0.000  1.000
    3062 POLY   1 POL  CG    CG    0.000  1.000
    3063 POLY   1 POL  CG    CG    0.000  1.000
    3064 POLY   1 POL  CG    CG    0.000  1.000
    3065 POLY   1 POL  CG    CG    0.000  1.000
    3066 POLY   1 POL  CG    CG    0.000  1.000
    3067 POLY   1 POL  CG    CG    0.000  1.000
    3068 POLY   1 POL  CG    CG    0.000  1.000
    3069 POLY   1 POL  CG    CG    0.000  1.000
    3070 POLY   1 POL  CG    CG    0.000  1.000
    3071 POLY   1 POL  CG    CG    0.000  1.000
    3072 POLY   1 POL  CG    CG    0.000  1.000
    3073 POLY   1 POL  CG    CG    0.000  1.000
    3074 POLY   1 POL  CG    CG    0.000  1.000
    3075 POLY   1 POL  CG    CG    0.000  1.000
    3076 POLY   1 POL  CG    CG    0.000  1.000
    3077 POLY   1 POL  CG    CG    0.000  1.000
    3078 POLY   1 POL  CG    CG    0.000  1.000
    3079 POLY   1 POL  CG    CG    0.000  1.000
    3080 POLY   1 POL  CG    CG    0.000  1.000
    3081 POLY   1 POL  CG    CG    0.000  1.000
    3082 POLY   1 POL  CG    CG    0.000  1.000
    3083 POLY   1 POL  CG    CG    0.000  1.000
    3084 POLY   1 POL  CG    CG    0.000  1.000
    3085 POLY   1 POL  CG    CG    0.000  1.000
    3086 POLY   1 POL  CG    CG    0.000  1.000
    3087 POLY   1 POL  CG    CG    0.000  1.000
    3088 POLY   1 POL  CG    CG    0.000  1.000
    3089 POLY   1 POL  CG    CG    0.000  1.000
    3090 POLY   1 POL  CG    CG    0.000  1.000
    3091 POLY   1 POL  CG    CG    0.000  1.000
    3092 POLY   1 POL  CG    CG    0.000  1.000
    3093 POLY   1 POL  CG    CG    0.000  1.000
    3094 POLY   1 POL  CG    CG    0.000  1.000
    3095 POLY   1 POL  CG    CG    0.000  1.000
    3096 POLY   1 POL  CG    CG    0.000  1.000
    3097 POLY   1 POL  CG    CG    0.000  1.000
    3098 POLY   1 POL  CG    CG    0.000  1.000
    3099 POLY   1 POL  CG    CG    0.000  1.000
    3100 POLY   1 POL  CG    CG    0.000  1.000
    3101 POLY   1 POL  CG    CG    0.000  1.000
    3102 POLY   1 POL  CG    CG    0.000  1.000
    3103 POLY   1 POL  CG    CG    0.000  1.000
    3104 POLY   1 POL  CG    CG    0.000  1.000
    3105 POLY   1 POL  CG    CG    0.000  1.000
    3106 POLY   1 POL  CG    CG    0.000  1.000
    3107 POLY   1 POL  CG    CG    0.000  1.000
    3108 POLY   1 POL  CG    CG    0.000  1.000
    3109 POLY   1 POL  CG    CG    0.000  1.000
    3110 POLY   1 POL  CG    CG    0.000  1.000
    3111 POLY   1 POL  CG    CG    0.000  1.000
    3112 POLY   1 POL  CG    CG    0.000  1.000
    3113 POLY   1 POL  CG    CG    0.000  1.000
    3114 POLY   1 POL  CG    CG    0.000  1.000
    3115 POLY   1 POL  CG    CG    0.000  1.000
    3116 POLY   1 POL  CG    CG    0.000  1.000
    3117 POLY   1 POL  CG    CG    0.000  1.000
    3118 POLY   1 POL  CG    CG    0.000  1.000
    3119 POLY   1 POL  CG    CG    0.000  1.000
    3120 POLY   1 POL  CG    CG    0.000  1.000
    3121 POLY   1 POL  CG    CG    0.000  1.000
    3122 POLY   1 POL  CG    CG    0.000  1.000
    3123 POLY   1 POL  CG    CG    0.000  1.000
    3124 POLY   1 POL  CG    CG    0.000  1.000
    3125 POLY   1 POL  CG    CG    0.000  1.000
    3126 POLY   1 POL  CG    CG    0.000  1.000
    3127 POLY   1 POL  CG    CG    0.000  1.000
    3128 POLY   1 POL  CG    CG    0.000  1.000
    3129 POLY   1 POL  CG    CG    0.000  1.000
    3130 POLY   1 POL  CG    CG    0.000  1.000
    3131 POLY   1 POL  CG    CG    0.000  1.000
    3132 POLY   1 POL  CG    CG    0.000  1.000
    3133 POLY   1 POL  CG    CG    0.000  1.000
    3134 POLY   1 POL  CG    CG    0.000  1.000
    3135 POLY   1 POL  CG    CG    0.000  1.000
    3136 POLY   1 POL  CG    CG    0.000  1.000
    3137 POLY   1 POL  CG    CG    0.000  1.000
    3138 POLY   1 POL  CG    CG    0.000  1.000
    3139 POLY   1 POL  CG    CG    0.000  1.000
    3140 POLY   1 POL  CG    CG    0.000  1.000
    3141 POLY   1 POL  CG    CG    0.000  1.000
    3142 POLY   1 POL  CG    CG    0.000  1.000
    3143 POLY   1 POL  CG    CG    0.000  1.000
    3144 POLY   1 POL  CG    CG    0.000  1.000
    3145 POLY   1 POL  CG    CG    0.000  1.000
    3146 POLY   1 POL  CG    CG    0.000  1.000
    3147 POLY   1 POL  CG    CG    0.000  1.000
    3148 POLY   1 POL  CG    CG    0.000  1.000
    3149 POLY   1 POL  CG    CG    0.000  1.000
    3150 POLY   1 POL  CG    CG    0.000  1.000
    3151 POLY   1 POL  CG    CG    0.000  1.000
    3152 POLY   1 POL  CG    CG    0.000  1.000
    3153 POLY   1 POL  CG    CG    0.000  1.000
    3154 POLY   1 POL  CG    CG    0.000  1.000
    3155 POLY   1 POL  CG    CG    0.000  1.000
    3156 POLY   1 POL  CG    CG    0.000  1.000
    3157 POLY   1 POL  CG    CG    0.000  1.000
    3158 POLY   1 POL  CG    CG    0.000  1.000
    3159 POLY   1 POL  CG    CG    0.000  1.000
    3160 POLY   1 POL  CG    CG    0.000  1.000
    3161 POLY   1 POL  CG    CG    0.000  1.000
    3162 POLY   1 POL  CG    CG    0.000  1.000
    3163 POLY   1 POL  CG    CG    0.000  1.000
    3164 POLY   1 POL  CG    CG    0.000  1.000
    3165 POLY   1 POL  CG    CG    0.000  1.000
    3166 POLY   1 POL  CG    CG    0.000  1.000
    3167 POLY   1 POL  CG    CG    0.000  1.000
    3168 POLY   1 POL  CG    CG    0.000  1.000
    3169 POLY   1 POL  CG    CG    0.000  1.000
    3170 POLY   1 POL  CG    CG    0.000  1.000
    3171 POLY   1 POL  CG    CG    0.000  1.000
    3172 POLY   1 POL  CG    CG    0.000  1.000
    3173 POLY   1 POL  CG    CG    0.000  1.000
    3174 POLY   1 POL  CG    CG    0.000  1.000
    3175 POLY   1 POL  CG    CG    0.000  1.000
    3176 POLY   1 POL  CG    CG    0.000  1.000
    3177 POLY   1 POL  CG    CG    0.000  1.000
    3178 POLY   1 POL  CG    CG    0.000  1.000
    3179 POLY   1 POL  CG    CG    0.000  1.000
    3180 POLY   1 POL  CG    CG    0.000  1.000
    3181 POLY   1 POL  CG    CG    0.000  1.000
    3182 POLY   1 POL  CG    CG    0.000  1.000
    3183 POLY   1 POL  CG    CG    0.000  1.000
    3184 POLY   1 POL  CG    CG    0.000  1.000
    3185 POLY   1 POL  CG    CG    0.000  1.000
    3186 POLY   1 POL  CG    CG    0.000  1.000
    3187 POLY   1 POL  CG    CG    0.000  1.000
    3188 POLY   1 POL  CG    CG    0.000  1.000
    3189 POLY   1 POL  CG    CG    0.000  1.000
    3190 POLY   1 POL  CG    CG    0.000  1.000
    3191 POLY   1 POL  CG    CG    0.000  1.000
    3192 POLY   1 POL  CG    CG    0.000  1.000
    3193 POLY   1 POL  CG    CG    0.000  1.000
    3194 POLY   1 POL  CG    CG    0.000  1.000
    3195 POLY   1 POL  CG    CG    0.000  1.000
    3196 POLY   1 POL  CG    CG    0.000  1.000
    3197 POLY   1 POL  CG    CG    0.000  1.000
    3198 POLY   1 POL  CG    CG    0.000  1.000
    3199 POLY   1 POL  CG    CG    0.000  1.000
    3200 POLY   1 POL  CG    CG    0.000  1.000
    3201 POLY   1 POL  CG    CG    0.000  1.000
    3202 POLY   1 POL  CG    CG    0.000  1.000
    3203 POLY   1 POL  CG    CG    0.000  1.000
    3204 POLY   1 POL  CG    CG    0.000  1.000
    3205 POLY   1 POL  CG    CG    0.000  1.000
    3206 POLY   1 POL  CG    CG    0.000  1.000
    3207 POLY   1 POL  CG    CG    0.000  1.000
    3208 POLY   1 POL  CG    CG    0.000  1.000
    3209 POLY   1 POL  CG    CG    0.000  1.000
    3210 POLY   1 POL  CG    CG    0.000  1.000
    3211 POLY   1 POL  CG    CG    0.000  1.000
    3212 POLY   1 POL  CG    CG    0.000  1.000
    3213 POLY   1 POL  CG    CG    0.000  1.000
    3214 POLY   1 POL  CG    CG    0.000  1.000
    3215 POLY   1 POL  CG    CG    0.000  1.000
    3216 POLY   1 POL  CG    CG    0.000  1.000
    3217 POLY   1 POL  CG    CG    0.000  1.000
    3218 POLY   1 POL  CG    CG    0.000  1.000
    3219 POLY   1 POL  CG    CG    0.000  1.000
    3220 POLY   1 POL  CG    CG    0.000  1.000
    3221 POLY   1 POL  CG    CG    0.000  1.000
    3222 POLY   1 POL  CG    CG    0.000  1.000
    3223 POLY   1 POL  CG    CG    0.000  1.000
    3224 POLY   1 POL  CG    CG    0.000  1.000
    3225 POLY   1 POL  CG    CG    0.000  1.000
    3226 POLY   1 POL  CG    CG    0.000  1.000
    3227 POLY   1 POL  CG    CG    0.000  1.000
    3228 POLY   1 POL  CG    CG    0.000  1.000
    3229 POLY   1 POL  CG    CG    0.000  1.000
    3230 POLY   1 POL  CG    CG    0.000  1.000
    3231 POLY   1 POL  CG    CG    0.000  1.000
    3232 POLY   1 POL  CG    CG    0.000  1.000
    3233 POLY   1 POL  CG    CG    0.000  1.000
    3234 POLY   1 POL  CG    CG    0.000  1.000
    3235 POLY   1 POL  CG    CG    0.000  1.000
    3236 POLY   1 POL  CG    CG    0.000  1.000
    3237 POLY   1 POL  CG    CG    0.000  1.000
    3238 POLY   1 POL  CG    CG    0.000  1.000
    3239 POLY   1 POL  CG    CG    0.000  1.000
    3240 POLY   1 POL  CG    CG    0.000  1.000
    3241 POLY   1 POL  CG    CG    0.000  1.000
    3242 POLY   1 POL  CG    CG    0.000  1.000
    3243 POLY   1 POL  CG    CG    0.000  1.000
    3244 POLY   1 POL  CG    CG    0.000  1.000
    3245 POLY   1 POL  CG    CG    0.000  1.000
    3246 POLY   1 POL  CG    CG    0.000  1.000
    3247 POLY   1 POL  CG    CG    0.000  1.000
    3248 POLY   1 POL  CG    CG    0.000  1.000
    3249 POLY   1 POL  CG    CG    0.000  1.000
    3250 POLY   1 POL  CG    CG    0.000  1.000
    3251 POLY   1 POL  CG    CG    0.000  1.000
    3252 POLY   1 POL  CG    CG    0.000  1.000
    3253 POLY   1 POL  CG    CG    0.000  1.000
    3254 POLY   1 POL  CG    CG    0.000  1.000
    3255 POLY   1 POL  CG    CG    0.000  1.000
    3256 POLY   1 POL  CG    CG    0.000  1.000
    3257 POLY   1 POL  CG    CG    0.000  1.000
    3258 POLY   1 POL  CG    CG    0.000  1.000
    3259 POLY   1 POL  CG    CG    0.000  1.000
    3260 POLY   1 POL  CG    CG    0.000  1.000
    3261 POLY   1 POL  CG    CG    0.000  1.000
    3262 POLY   1 POL  CG    CG    0.000  1.000
    3263 POLY   1 POL  CG    CG    0.000  1.000
    3264 POLY   1 POL  CG    CG    0.000  1.000
    3265 POLY   1 POL  CG    CG    0.000  1.000
    3266 POLY   1 POL  CG    CG    0.000  1.000
    3267 POLY   1 POL  CG    CG    0.000  1.000
    3268 POLY   1 POL  CG    CG    0.000  1.000
    3269 POLY   1 POL  CG    CG    0.000  1.000
    3270 POLY   1 POL  CG    CG    0.000  1.000
    3271 POLY   1 POL  CG    CG    0.000  1.000
    3272 POLY   1 POL  CG    CG    0.000  1.000
    3273 POLY   1 POL  CG    CG    0.000  1.000
    3274 POLY   1 POL  CG    CG    0.000  1.000
    3275 POLY   1 POL  CG    CG    0.000  1.000
    3276 POLY   1 POL  CG    CG    0.000  1.000
    3277 POLY   1 POL  CG    CG    0.000  1.000
    3278 POLY   1 POL  CG    CG    0.000  1.000
    3279 POLY   1 POL  CG    CG    0.000  1.000
    3280 POLY   1 POL  CG    CG    0.000  1.000
    3281 POLY   1 POL  CG    CG    0.000  1.000
    3282 POLY   1 POL  CG    CG    0.000  1.000
    3283 POLY   1 POL  CG    CG    0.000  1.000
    3284 POLY   1 POL  CG    CG    0.000  1.000
    3285 POLY   1 POL  CG    CG    0.000  1.000
    3286 POLY   1 POL  CG    CG    0.000  1.000
    3287 POLY   1 POL  CG    CG    0.000  1.000
    3288 POLY   1 POL  CG    CG    0.000  1.000
    3289 POLY   1 POL  CG    CG    0.000  1.000
    3290 POLY   1 POL  CG    CG    0.000  1.000
    3291 POLY   1 POL  CG    CG    0.000  1.000
    3292 POLY   1 POL  CG    CG    0.000  1.000
    3293 POLY   1 POL  CG    CG    0.000  1.000
    3294 POLY   1 POL  CG    CG    0.000  1.000
    3295 POLY   1 POL  CG    CG    0.000  1.000
    3296 POLY   1 POL  CG    CG    0.000  1.000
    3297 POLY   1 POL  CG    CG    0.000  1.000
    3298 POLY   1 POL  CG    CG    0.000  1.000
    3299 POLY   1 POL  CG    CG    0.000  1.000
    3300 POLY   1 POL  CG    CG    0.000  1.000
    3301 POLY   1 POL  CG    CG    0.000  1.000
    3302 POLY   1 POL  CG    CG    0.000  1.000
    3303 POLY   1 POL  CG    CG    0.000  1.000
    3304 POLY   1 POL  CG    CG    0.000  1.000
    3305 POLY   1 POL  CG    CG    0.000  1.000
    3306 POLY   1 POL  CG    CG    0.000  1.000
    3307 POLY   1 POL  CG    CG    0.000  1.000
    3308 POLY   1 POL  CG    CG    0.000  1.000
    3309 POLY   1 POL  CG    CG    0.000  1.000
    3310 POLY   1 POL  CG    CG    0.000  1.000
    3311 POLY   1 POL  CG    CG    0.000  1.000
    3312 POLY   1 POL  CG    CG    0.000  1.000
    3313 POLY   1 POL  CG    CG    0.000  1.000
    3314 POLY   1 POL  CG    CG    0.000  1.000
    3315 POLY   1 POL  CG    CG    0.000  1.000
    3316 POLY   1 POL  CG    CG    0.000  1.000
    3317 POLY   1 POL  CG    CG    0.000  1.000
    3318 POLY   1 POL  CG    CG    0.000  1.000
    3319 POLY   1 POL  CG    CG    0.000  1.000
    3320 POLY   1 POL  CG    CG    0.000  1.000
    3321 POLY   1 POL  CG    CG    0.000  1.000
    3322 POLY   1 POL  CG    CG    0.000  1.000
    3323 POLY   1 POL  CG    CG    0.000  1.000
    3324 POLY   1 POL  CG    CG    0.000  1.000
    3325 POLY   1 POL  CG    CG    0.000  1.000
    3326 POLY   1 POL  CG    CG    0.000  1.000
    3327 POLY   1 POL  CG    CG    0.000  1.000
    3328 POLY   1 POL  CG    CG    0.000  1.000
    3329 POLY   1 POL  CG    CG    0.000  1.000
    3330 POLY   1 POL  CG    CG    0.000  1.000
    3331 POLY   1 POL  CG    CG    0.000  1.000
    3332 POLY   1 POL  CG    CG    0.000  1.000
    3333 POLY   1 POL  CG    CG    0.000  1.000
    3334 POLY   1 POL  CG    CG    0.000  1.000
    3335 POLY   1 POL  CG    CG    0.000  1.000
    3336 POLY   1 POL  CG    CG    0.000  1.000
    3337 POLY   1 POL  CG    CG    0.000  1.000
    3338 POLY   1 POL  CG    CG    0.000  1.000
    3339 POLY   1 POL  CG    CG    0.000  1.000
    3340 POLY   1 POL  CG    CG    0.000  1.000
    3341 POLY   1 POL  CG    CG    0.000  1.000
    3342 POLY   1 POL  CG    CG    0.000  1.000
    3343 POLY   1 POL  CG    CG    0.000  1.000
    3344 POLY   1 POL  CG    CG    0.000  1.000
    3345 POLY   1 POL  CG    CG    0.000  1.000
    3346 POLY   1 POL  CG    CG    0.000  1.000
    3347 POLY   1 POL  CG    CG    0.000  1.000
    3348 POLY   1 POL  CG    CG    0.000  1.000
    3349 POLY   1 POL  CG    CG    0.000  1.000
    3350 POLY   1 POL  CG    CG    0.000  1.000
    3351 POLY   1 POL  CG    CG    0.000  1.000
    3352 POLY   1 POL  CG    CG    0.000  1.000
    3353 POLY   1 POL  CG    CG    0.000  1.000
    3354 POLY   1 POL  CG    CG    0.000  1.000
    3355 POLY   1 POL  CG    CG    0.000  1.000
    3356 POLY   1 POL  CG    CG    0.000  1.000
    3357 POLY   1 POL  CG    CG    0.000  1.000
    3358 POLY   1 POL  CG    CG    0.000  1.000
    3359 POLY   1 POL  CG    CG    0.000  1.000
    3360 POLY   1 POL  CG    CG    0.000  1.000
    3361 POLY   1 POL  CG    CG    0.000  1.000
    3362 POLY   1 POL  CG    CG    0.000  1.000
    3363 POLY   1 POL  CG    CG    0.000  1.000
    3364 POLY   1 POL  CG    CG    0.000  1.000
    3365 POLY   1 POL  CG    CG    0.000  1.000
    3366 POLY   1 POL  CG    CG    0.000  1.000
    3367 POLY   1 POL  CG    CG    0.000  1.000
    3368 POLY   1 POL  CG    CG    0.000  1.000
    3369 POLY   1 POL  CG    CG    0.000  1.000
    3370 POLY   1 POL  CG    CG    0.000  1.000
    3371 POLY   1 POL  CG    CG    0.000  1.000
    3372 POLY   1 POL  CG    CG    0.000  1.000
    3373 POLY   1 POL  CG    CG    0.000  1.000
    3374 POLY   1 POL  CG    CG    0.000  1.000
    3375 POLY   1 POL  CG    CG    0.000  1.000
    3376 POLY   1 POL  CG    CG    0.000  1.000
    3377 POLY   1 POL  CG    CG    0.000  1.000
    3378 POLY   1 POL  CG    CG    0.000  1.000
    3379 POLY   1 POL  CG    CG    0.000  1.000
    3380 POLY   1 POL  CG    CG    0.000  1.000
    3381 POLY   1 POL  CG    CG    0.000  1.000
    3382 POLY   1 POL  CG    CG    0.000  1.000
    3383 POLY   1 POL  CG    CG    0.000  1.000
    3384 POLY   1 POL  CG    CG    0.000  1.000
    3385 POLY   1 POL  CG    CG    0.000  1.000
    3386 POLY   1 POL  CG    CG    0.000  1.000
    3387 POLY   1 POL  CG    CG    0.000  1.000
    3388 POLY   1 POL  CG    CG    0.000  1.000
    3389 POLY   1 POL  CG    CG    0.000  1.000
    3390 POLY   1 POL  CG    CG    0.000  1.000
    3391 POLY   1 POL  CG    CG    0.000  1.000
    3392 POLY   1 POL  CG    CG    0.000  1.000
    3393 POLY   1 POL  CG    CG    0.000  1.000
    3394 POLY   1 POL  CG    CG    0.000  1.000
    3395 POLY   1 POL  CG    CG    0.000  1.000
    3396 POLY   1 POL  CG    CG    0.000  1.000
    3397 POLY   1 POL  CG    CG    0.000  1.000
    3398 POLY   1 POL  CG    CG    0.000  1.000
    3399 POLY   1 POL  CG    CG    0.000  1.000
    3400 POLY   1 POL  CG    CG    0.000  1.000
    3401 POLY   1 POL  CG    CG    0.000  1.000
    3402 POLY   1 POL  CG    CG    0.000  1.000
    3403 POLY   1 POL  CG    CG    0.000  1.000
    3404 POLY   1 POL  CG    CG    0.000  1.000
    3405 POLY   1 POL  CG    CG    0.000  1.000
    3406 POLY   1 POL  CG    CG    0.000  1.000
    3407 POLY   1 POL  CG    CG    0.000  1.000
    3408 POLY   1 POL  CG    CG    0.000  1.000
    3409 POLY   1 POL  CG    CG    0.000  1.000
    3410 POLY   1 POL  CG    CG    0.000  1.000
    3411 POLY   1 POL  CG    CG    0.000  1.000
    3412 POLY   1 POL  CG    CG    0.000  1.000
    3413 POLY   1 POL  CG    CG    0.000  1.000
    3414 POLY   1 POL  CG    CG    0.000  1.000
    3415 POLY   1 POL  CG    CG    0.000  1.000
    3416 POLY   1 POL  CG    CG    0.000  1.000
    3417 POLY   1 POL  CG    CG    0.000  1.000
    3418 POLY   1 POL  CG    CG    0.000  1.000
    3419 POLY   1 POL  CG    CG    0.000  1.000
    3420 POLY   1 POL  CG    CG    0.000  1.000
    3421 POLY   1 POL  CG    CG    0.000  1.000
    3422 POLY   1 POL  CG    CG    0.000  1.000
    3423 POLY   1 POL  CG    CG    0.000  1.000
    3424 POLY   1 POL  CG    CG    0.000  1.000
    3425 POLY   1 POL  CG    CG    0.000  1.000
    3426 POLY   1 POL  CG    CG    0.000  1.000
    3427 POLY   1 POL  CG    CG    0.000  1.000
    3428 POLY   1 POL  CG    CG    0.000  1.000
    3429 POLY   1 POL  CG    CG    0.000  1.000
    3430 POLY   1 POL  CG    CG    0.000  1.000
    3431 POLY   1 POL  CG    CG    0.000  1.000
    3432 POLY   1 POL  CG    CG    0.000  1.000
    3433 POLY   1 POL  CG    CG    0.000  1.000
    3434 POLY   1 POL  CG    CG    0.000  1.000
    3435 POLY   1 POL  CG    CG    0.000  1.000
    3436 POLY   1 POL  CG    CG    0.000  1.000
    3437 POLY   1 POL  CG    CG    0.000  1.000
    3438 POLY   1 POL  CG    CG    0.000  1.000
    3439 POLY   1 POL  CG    CG    0.000  1.000
    3440 POLY   1 POL  CG    CG    0.000  1.000
    3441 POLY   1 POL  CG    CG    0.000  1.000
    3442 POLY   1 POL  CG    CG    0.000  1.000
    3443 POLY   1 POL  CG    CG    0.000  1.000
    3444 POLY   1 POL  CG    CG    0.000  1.000
    3445 POLY   1 POL  CG    CG    0.000  1.000
    3446 POLY   1 POL  CG    CG    0.000  1.000
    3447 POLY   1 POL  CG    CG    0.000  1.000
    3448 POLY   1 POL  CG    CG    0.000  1.000
    3449 POLY   1 POL  CG    CG    0.000  1.000
    3450 POLY   1 POL  CG    CG    0.000  1.000
    3451 POLY   1 POL  CG    CG    0.000  1.000
    3452 POLY   1 POL  CG    CG    0.000  1.000
    3453 POLY   1 POL  CG    CG    0.000  1.000
    3454 POLY   1 POL  CG    CG    0.000  1.000
    3455 POLY   1 POL  CG    CG    0.000  1.000
    3456 POLY   1 POL  CG    CG    0.000  1.000
    3457 POLY   1 POL  CG    CG    0.000  1.000
    3458 POLY   1 POL  CG    CG    0.000  1.000
    3459 POLY   1 POL  CG    CG    0.000  1.000
    3460 POLY   1 POL  CG    CG    0.000  1.000
    3461 POLY   1 POL  CG    CG    0.000  1.000
    3462 POLY   1 POL  CG    CG    0.000  1.000
    3463 POLY   1 POL  CG    CG    0.000  1.000
    3464 POLY   1 POL  CG    CG    0.000  1.000
    3465 POLY   1 POL  CG    CG    0.000  1.000
    3466 POLY   1 POL  CG    CG    0.000  1.000
    3467 POLY   1 POL  CG    CG    0.000  1.000
    3468 POLY   1 POL  CG    CG    0.000  1.000
    3469 POLY   1 POL  CG    CG    0.000  1.000
    3470 POLY   1 POL  CG    CG    0.000  1.000
    3471 POLY   1 POL  CG    CG    0.000  1.000
    3472 POLY   1 POL  CG    CG    0.000  1.000
    3473 POLY   1 POL  CG    CG    0.000  1.000
    3474 POLY   1 POL  CG    CG    0.000  1.000
    3475 POLY   1 POL  CG    CG    0.000  1.000
    3476 POLY   1 POL  CG    CG    0.000  1.000
    3477 POLY   1 POL  CG    CG    0.000  1.000
    3478 POLY   1 POL  CG    CG    0.000  1.000
    3479 POLY   1 POL  CG    CG    0.000  1.000
    3480 POLY   1 POL  CG    CG    0.000  1.000
    3481 POLY   1 POL  CG    CG    0.000  1.000
    3482 POLY   1 POL  CG    CG    0.000  1.000
    3483 POLY   1 POL  CG    CG    0.000  1.000
    3484 POLY   1 POL  CG    CG    0.000  1.000
    3485 POLY   1 POL  CG    CG    0.000  1.000
    3486 POLY   1 POL  CG    CG    0.000  1.000
    3487 POLY   1 POL  CG    CG    0.000  1.000
    3488 POLY   1 POL  CG    CG    0.000  1.000
    3489 POLY   1 POL  CG    CG    0.000  1.000
    3490 POLY   1 POL  CG    CG    0.000  1.000
    3491 POLY   1 POL  CG    CG    0.000  1.000
    3492 POLY   1 POL  CG    CG    0.000  1.000
    3493 POLY   1 POL  CG    CG    0.000  1.000
    3494 POLY   1 POL  CG    CG    0.000  1.000
    3495 POLY   1 POL  CG    CG    0.000  1.000
    3496 POLY   1 POL  CG    CG    0.000  1.000
    3497 POLY   1 POL  CG    CG    0.000  1.000
    3498 POLY   1 POL  CG    CG    0.000  1.000
    3499 POLY   1 POL  CG    CG    0.000  1.000
    3500 POLY   1 POL  CG    CG    0.000  1.000
    3501 POLY   1 POL  CG    CG    0.000  1.000
    3502 POLY   1 POL  CG    CG    0.000  1.000
    3503 POLY   1 POL  CG    CG    0.000  1.000
    3504 POLY   1 POL  CG    CG    0.000  1.000
    3505 POLY   1 POL  CG    CG    0.000  1.000
    3506 POLY   1 POL  CG    CG    0.000  1.000
    3507 POLY   1 POL  CG    CG    0.000  1.000
    3508 POLY   1 POL  CG    CG    0.000  1.000
    3509 POLY   1 POL  CG    CG    0.000  1.000
    3510 POLY   1 POL  CG    CG    0.000  1.000
    3511 POLY   1 POL  CG    CG    0.000  1.000
    3512 POLY   1 POL  CG    CG    0.000  1.000
    3513 POLY   1 POL  CG    CG    0.000  1.000
    3514 POLY   1 POL  CG    CG    0.000  1.000
    3515 POLY   1 POL  CG    CG    0.000  1.000
    3516 POLY   1 POL  CG    CG    0.000  1.000
    3517 POLY   1 POL  CG    CG    0.000  1.000
    3518 POLY   1 POL  CG    CG    0.000  1.000
    3519 POLY   1 POL  CG    CG    0.000  1.000
    3520 POLY   1 POL  CG    CG    0.000  1.000
    3521 POLY   1 POL  CG    CG    0.000  1.000
    3522 POLY   1 POL  CG    CG    0.000  1.000
    3523 POLY   1 POL  CG    CG    0.000  1.000
    3524 POLY   1 POL  CG    CG    0.000  1.000
    3525 POLY   1 POL  CG    CG    0.000  1.000
    3526 POLY   1 POL  CG    CG    0.000  1.000
    3527 POLY   1 POL  CG    CG    0.000  1.000
    3528 POLY   1 POL  CG    CG    0.000  1.000
    3529 POLY   1 POL  CG    CG    0.000  1.000
    3530 POLY   1 POL  CG    CG    0.000  1.000
    3531 POLY   1 POL  CG    CG    0.000  1.000
    3532 POLY   1 POL  CG    CG    0.000  1.000
    3533 POLY   1 POL  CG    CG    0.000  1.000
    3534 POLY   1 POL  CG    CG    0.000  1.000
    3535 POLY   1 POL  CG    CG    0.000  1.000
    3536 POLY   1 POL  CG    CG    0.000  1.000
    3537 POLY   1 POL  CG    CG    0.000  1.000
    3538 POLY   1 POL  CG    CG    0.000  1.000
    3539 POLY   1 POL  CG    CG    0.000  1.000
    3540 POLY   1 POL  CG    CG    0.000  1.000
    3541 POLY   1 POL  CG    CG    0.000  1.000
    3542 POLY   1 POL  CG    CG    0.000  1.000
    3543 POLY   1 POL  CG    CG    0.000  1.000
    3544 POLY   1 POL  CG    CG    0.000  1.000
    3545 POLY   1 POL  CG    CG    0.000  1.000
    3546 POLY   1 POL  CG    CG    0.000  1.000
    3547 POLY   1 POL  CG    CG    0.000  1.000
    3548 POLY   1 POL  CG    CG    0.000  1.000
    3549 POLY   1 POL  CG    CG    0.000  1.000
    3550 POLY   1 POL  CG    CG    0.000  1.000
    3551 POLY   1 POL  CG    CG    0.000  1.000
    3552 POLY   1 POL  CG    CG    0.000  1.000
    3553 POLY   1 POL  CG    CG    0.000  1.000
    3554 POLY   1 POL  CG    CG    0.000  1.000
    3555 POLY   1 POL  CG    CG    0.000  1.000
    3556 POLY   1 POL  CG    CG    0.000  1.000
    3557 POLY   1 POL  CG    CG    0.000  1.000
    3558 POLY   1 POL  CG    CG    0.000  1.000
    3559 POLY   1 POL  CG    CG    0.000  1.000
    3560 POLY   1 POL  CG    CG    0.000  1.000
    3561 POLY   1 POL  CG    CG    0.000  1.000
    3562 POLY   1 POL  CG    CG    0.000  1.000
    3563 POLY   1 POL  CG    CG    0.000  1.000
    3564 POLY   1 POL  CG    CG    0.000  1.000
    3565 POLY   1 POL  CG    CG    0.000  1.000
    3566 POLY   1 POL  CG    CG    0.000  1.000
    3567 POLY   1 POL  CG    CG    0.000  1.000
    3568 POLY   1 POL  CG    CG    0.000  1.000
    3569 POLY   1 POL  CG    CG    0.000  1.000
    3570 POLY   1 POL  CG    CG    0.000  1.000
    3571 POLY   1 POL  CG    CG    0.000  1.000
    3572 POLY   1 POL  CG    CG    0.000  1.000
    3573 POLY   1 POL  CG    CG    0.000  1.000
    3574 POLY   1 POL  CG    CG    0.000  1.000
    3575 POLY   1 POL  CG    CG    0.000  1.000
    3576 POLY   1 POL  CG    CG    0.000  1.000
    3577 POLY   1 POL  CG    CG    0.000  1.000
    3578 POLY   1 POL  CG    CG    0.000  1.000
    3579 POLY   1 POL  CG    CG    0.000  1.000
    3580 POLY   1 POL  CG    CG    0.000  1.000
    3581 POLY   1 POL  CG    CG    0.000  1.000
    3582 POLY   1 POL  CG    CG    0.000  1.000
    3583 POLY   1 POL  CG    CG    0.000  1.000
    3584 POLY   1 POL  CG    CG    0.000  1.000
    3585 POLY   1 POL  CG    CG    0.000  1.000
    3586 POLY   1 POL  CG    CG    0.000  1.000
    3587 POLY   1 POL  CG    CG    0.000  1.000
    3588 POLY   1 POL  CG    CG    0.000  1.000
    3589 POLY   1 POL  CG    CG    0.000  1.000
    3590 POLY   1 POL  CG    CG    0.000  1.000
    3591 POLY   1 POL  CG    CG    0.000  1.000
    3592 POLY   1 POL  CG    CG    0.000  1.000
    3593 POLY   1 POL  CG    CG    0.000  1.000
    3594 POLY   1 POL  CG    CG    0.000  1.000
    3595 POLY   1 POL  CG    CG    0.000  1.000
    3596 POLY   1 POL  CG    CG    0.000  1.000
    3597 POLY   1 POL  CG    CG    0.000  1.000
    3598 POLY   1 POL  CG    CG    0.000  1.000
    3599 POLY   1 POL  CG    CG    0.000  1.000
    3600 POLY   1 POL  CG    CG    0.000  1.000
    3601 POLY   1 POL  CG    CG    0.000  1.000
    3602 POLY   1 POL  CG    CG    0.000  1.000
    3603 POLY   1 POL  CG    CG    0.000  1.000
    3604 POLY   1 POL  CG    CG    0.000  1.000
    3605 POLY   1 POL  CG    CG    0.000  1.000
    3606 POLY   1 POL  CG    CG    0.000  1.000
    3607 POLY   1 POL  CG    CG    0.000  1.000
    3608 POLY   1 POL  CG    CG    0.000  1.000
    3609 POLY   1 POL  CG    CG    0.000  1.000
    3610 POLY   1 POL  CG    CG    0.000  1.000
    3611 POLY   1 POL  CG    CG    0.000  1.000
    3612 POLY   1 POL  CG    CG    0.000  1.000
    3613 POLY   1 POL  CG    CG    0.000  1.000
    3614 POLY   1 POL  CG    CG    0.000  1.000
    3615 POLY   1 POL  CG    CG    0.000  1.000
    3616 POLY   1 POL  CG    CG    0.000  1.000
    3617 POLY   1 POL  CG    CG    0.000  1.000
    3618 POLY   1 POL  CG    CG    0.000  1.000
    3619 POLY   1 POL  CG    CG    0.000  1.000
    3620 POLY   1 POL  CG    CG    0.000  1.000
    3621 POLY   1 POL  CG    CG    0.000  1.000
    3622 POLY   1 POL  CG    CG    0.000  1.000
    3623 POLY   1 POL  CG    CG    0.000  1.000
    3624 POLY   1 POL  CG    CG    0.000  1.000
    3625 POLY   1 POL  CG    CG    0.000  1.000
    3626 POLY   1 POL  CG    CG    0.000  1.000
    3627 POLY   1 POL  CG    CG    0.000  1.000
    3628 POLY   1 POL  CG    CG    0.000  1.000
    3629 POLY   1 POL  CG    CG    0.000  1.000
    3630 POLY   1 POL  CG    CG    0.000  1.000
    3631 POLY   1 POL  CG    CG    0.000  1.000
    3632 POLY   1 POL  CG    CG    0.000  1.000
    3633 POLY   1 POL  CG    CG    0.000  1.000
    3634 POLY   1 POL  CG    CG    0.000  1.000
    3635 POLY   1 POL  CG    CG    0.000  1.000
    3636 POLY   1 POL  CG    CG    0.000  1.000
    3637 POLY   1 POL  CG    CG    0.000  1.000
    3638 POLY   1 POL  CG    CG    0.000  1.000
    3639 POLY   1 POL  CG    CG    0.000  1.000
    3640 POLY   1 POL  CG    CG    0.000  1.000
    3641 POLY   1 POL  CG    CG    0.000  1.000
    3642 POLY   1 POL  CG    CG    0.000  1.000
    3643 POLY   1 POL  CG    CG    0.000  1.000
    3644 POLY   1 POL  CG    CG    0.000  1.000
    3645 POLY   1 POL  CG    CG    0.000  1.000
    3646 POLY   1 POL  CG    CG    0.000  1.000
    3647 POLY   1 POL  CG    CG    0.000  1.000
    3648 POLY   1 POL  CG    CG    0.000  1.000
    3649 POLY   1 POL  CG    CG    0.000  1.000
    3650 POLY   1 POL  CG    CG    0.000  1.000
    3651 POLY   1 POL  CG    CG    0.000  1.000
    3652 POLY   1 POL  CG    CG    0.000  1.000
    3653 POLY   1 POL  CG    CG    0.000  1.000
    3654 POLY   1 POL  CG    CG    0.000  1.000
    3655 POLY   1 POL  CG    CG    0.000  1.000
    3656 POLY   1 POL  CG    CG    0.000  1.000
    3657 POLY   1 POL  CG    CG    0.000  1.000
    3658 POLY   1 POL  CG    CG    0.000  1.000
    3659 POLY   1 POL  CG    CG    0.000  1.000
    3660 POLY   1 POL  CG    CG    0.000  1.000
    3661 POLY   1 POL  CG    CG    0.000  1.000
    3662 POLY   1 POL  CG    CG    0.000  1.000
    3663 POLY   1 POL  CG    CG    0.000  1.000
    3664 POLY   1 POL  CG    CG    0.000  1.000
    3665 POLY   1 POL  CG    CG    0.000  1.000
    3666 POLY   1 POL  CG    CG    0.000  1.000
    3667 POLY   1 POL  CG    CG    0.000  1.000
    3668 POLY   1 POL  CG    CG    0.000  1.000
    3669 POLY   1 POL  CG    CG    0.000  1.000
    3670 POLY   1 POL  CG    CG    0.000  1.000
    3671 POLY   1 POL  CG    CG    0.000  1.000
    3672 POLY   1 POL  CG    CG    0.000  1.000
    3673 POLY   1 POL  CG    CG    0.000  1.000
    3674 POLY   1 POL  CG    CG    0.000  1.000
    3675 POLY   1 POL  CG    CG    0.000  1.000
    3676 POLY   1 POL  CG    CG    0.000  1.000
    3677 POLY   1 POL  CG    CG    0.000  1.000
    3678 POLY   1 POL  CG    CG    0.000  1.000
    3679 POLY   1 POL  CG    CG    0.000  1.000
    3680 POLY   1 POL  CG    CG    0.000  1.000
    3681 POLY   1 POL  CG    CG    0.000  1.000
    3682 POLY   1 POL  CG    CG    0.000  1.000
    3683 POLY   1 POL  CG    CG    0.000  1.000
    3684 POLY   1 POL  CG    CG    0.000  1.000
    3685 POLY   1 POL  CG    CG    0.000  1.000
    3686 POLY   1 POL  CG    CG    0.000  1.000
    3687 POLY   1 POL  CG    CG    0.000  1.000
    3688 POLY   1 POL  CG    CG    0.000  1.000
    3689 POLY   1 POL  CG    CG    0.000  1.000
    3690 POLY   1 POL  CG    CG    0.000  1.000
    3691 POLY   1 POL  CG    CG    0.000  1.000
    3692 POLY   1 POL  CG    CG    0.000  1.000
    3693 POLY   1 POL  CG    CG    0.000  1.000
    3694 POLY   1 POL  CG    CG    0.000  1.000
    3695 POLY   1 POL  CG    CG    0.000  1.000
    3696 POLY   1 POL  CG    CG    0.000  1.000
    3697 POLY   1 POL  CG    CG    0.000  1.000
    3698 POLY   1 POL  CG    CG    0.000  1.000
    3699 POLY   1 POL  CG    CG    0.000  1.000
    3700 POLY   1 POL  CG    CG    0.000  1.000
    3701 POLY   1 POL  CG    CG    0.000  1.000
    3702 POLY   1 POL  CG    CG    0.000  1.000
    3703 POLY   1 POL  CG    CG    0.000  1.000
    3704 POLY   1 POL  CG    CG    0.000  1.000
    3705 POLY   1 POL  CG    CG    0.000  1.000
    3706 POLY   1 POL  CG    CG    0.000  1.000
    3707 POLY   1 POL  CG    CG    0.000  1.000
    3708 POLY   1 POL  CG    CG    0.000  1.000
    3709 POLY   1 POL  CG    CG    0.000  1.000
    3710 POLY   1 POL  CG    CG    0.000  1.000
    3711 POLY   1 POL  CG    CG    0.000  1.000
    3712 POLY   1 POL  CG    CG    0.000  1.000
    3713 POLY   1 POL  CG    CG    0.000  1.000
    3714 POLY   1 POL  CG    CG    0.000  1.000
    3715 POLY   1 POL  CG    CG    0.000  1.000
    3716 POLY   1 POL  CG    CG    0.000  1.000
    3717 POLY   1 POL  CG    CG    0.000  1.000
    3718 POLY   1 POL  CG    CG    0.000  1.000
    3719 POLY   1 POL  CG    CG    0.000  1.000
    3720 POLY   1 POL  CG    CG    0.000  1.000
    3721 POLY   1 POL  CG    CG    0.000  1.000
    3722 POLY   1 POL  CG    CG    0.000  1.000
    3723 POLY   1 POL  CG    CG    0.000  1.000
    3724 POLY   1 POL  CG    CG    0.000  1.000
    3725 POLY   1 POL  CG    CG    0.000  1.000
    3726 POLY   1 POL  CG    CG    0.000  1.000
    3727 POLY   1 POL  CG    CG    0.000  1.000
    3728 POLY   1 POL  CG    CG    0.000  1.000
    3729 POLY   1 POL  CG    CG    0.000  1.000
    3730 POLY   1 POL  CG    CG    0.000  1.000
    3731 POLY   1 POL  CG    CG    0.000  1.000
    3732 POLY   1 POL  CG    CG    0.000  1.000
    3733 POLY   1 POL  CG    CG    0.000  1.000
    3734 POLY   1 POL  CG    CG    0.000  1.000
    3735 POLY   1 POL  CG    CG    0.000  1.000
    3736 POLY   1 POL  CG    CG    0.000  1.000
    3737 POLY   1 POL  CG    CG    0.000  1.000
    3738 POLY   1 POL  CG    CG    0.000  1.000
    3739 POLY   1 POL  CG    CG    0.000  1.000
    3740 POLY   1 POL  CG    CG    0.000  1.000
    3741 POLY   1 POL  CG    CG    0.000  1.000
    3742 POLY   1 POL  CG    CG    0.000  1.000
    3743 POLY   1 POL  CG    CG    0.000  1.000
    3744 POLY   1 POL  CG    CG    0.000  1.000
    3745 POLY   1 POL  CG    CG    0.000  1.000
    3746 POLY   1 POL  CG    CG    0.000  1.000
    3747 POLY   1 POL  CG    CG    0.000  1.000
    3748 POLY   1 POL  CG    CG    0.000  1.000
    3749 POLY   1 POL  CG    CG    0.000  1.000
    3750 POLY   1 POL  CG    CG    0.000  1.000
    3751 POLY   1 POL  CG    CG    0.000  1.000
    3752 POLY   1 POL  CG    CG    0.000  1.000
    3753 POLY   1 POL  CG    CG    0.000  1.000
    3754 POLY   1 POL  CG    CG    0.000  1.000
    3755 POLY   1 POL  CG    CG    0.000  1.000
    3756 POLY   1 POL  CG    CG    0.000  1.000
    3757 POLY   1 POL  CG    CG    0.000  1.000
    3758 POLY   1 POL  CG    CG    0.000  1.000
    3759 POLY   1 POL  CG    CG    0.000  1.000
    3760 POLY   1 POL  CG    CG    0.000  1.000
    3761 POLY   1 POL  CG    CG    0.000  1.000
    3762 POLY   1 POL  CG    CG    0.000  1.000
    3763 POLY   1 POL  CG    CG    0.000  1.000
    3764 POLY   1 POL  CG    CG    0.000  1.000
    3765 POLY   1 POL  CG    CG    0.000  1.000
    3766 POLY   1 POL  CG    CG    0.000  1.000
    3767 POLY   1 POL  CG    CG    0.000  1.000
    3768 POLY   1 POL  CG    CG    0.000  1.000
    3769 POLY   1 POL  CG    CG    0.000  1.000
    3770 POLY   1 POL  CG    CG    0.000  1.000
    3771 POLY   1 POL  CG    CG    0.000  1.000
    3772 POLY   1 POL  CG    CG    0.000  1.000
    3773 POLY   1 POL  CG    CG    0.000  1.000
    3774 POLY   1 POL  CG    CG    0.000  1.000
    3775 POLY   1 POL  CG    CG    0.000  1.000
    3776 POLY   1 POL  CG    CG    0.000  1.000
    3777 POLY   1 POL  CG    CG    0.000  1.000
    3778 POLY   1 POL  CG    CG    0.000  1.000
    3779 POLY   1 POL  CG    CG    0.000  1.000
    3780 POLY   1 POL  CG    CG    0.000  1.000
    3781 POLY   1 POL  CG    CG    0.000  1.000
    3782 POLY   1 POL  CG    CG    0.000  1.000
    3783 POLY   1 POL  CG    CG    0.000  1.000
    3784 POLY   1 POL  CG    CG    0.000  1.000
    3785 POLY   1 POL  CG    CG    0.000  1.000
    3786 POLY   1 POL  CG    CG    0.000  1.000
    3787 POLY   1 POL  CG    CG    0.000  1.000
    3788 POLY   1 POL  CG    CG    0.000  1.000
    3789 POLY   1 POL  CG    CG    0.000  1.000
    3790 POLY   1 POL  CG    CG    0.000  1.000
    3791 POLY   1 POL  CG    CG    0.000  1.000
    3792 POLY   1 POL  CG    CG    0.000  1.000
    3793 POLY   1 POL  CG    CG    0.000  1.000
    3794 POLY   1 POL  CG    CG    0.000  1.000
    3795 POLY   1 POL  CG    CG    0.000  1.000
    3796 POLY   1 POL  CG    CG    0.000  1.000
    3797 POLY   1 POL  CG    CG    0.000  1.000
    3798 POLY   1 POL  CG    CG    0.000  1.000
    3799 POLY   1 POL  CG    CG    0.000  1.000
    3800 POLY   1 POL  CG    CG    0.000  1.000
    3801 POLY   1 POL  CG    CG    0.000  1.000
    3802 POLY   1 POL  CG    CG    0.000  1.000
    3803 POLY   1 POL  CG    CG    0.000  1.000
    3804 POLY   1 POL  CG    CG    0.000  1.000
    3805 POLY   1 POL  CG    CG    0.000  1.000
    3806 POLY   1 POL  CG    CG    0.000  1.000
    3807 POLY   1 POL  CG    CG    0.000  1.000
    3808 POLY   1 POL  CG    CG    0.000  1.000
    3809 POLY   1 POL  CG    CG    0.000  1.000
    3810 POLY   1 POL  CG    CG    0.000  1.000
    3811 POLY   1 POL  CG    CG    0.000  1.000
    3812 POLY   1 POL  CG    CG    0.000  1.000
    3813 POLY   1 POL  CG    CG    0.000  1.000
    3814 POLY   1 POL  CG    CG    0.000  1.000
    3815 POLY   1 POL  CG    CG    0.000  1.000
    3816 POLY   1 POL  CG    CG    0.000  1.000
    3817 POLY   1 POL  CG    CG    0.000  1.000
    3818 POLY   1 POL  CG    CG    0.000  1.000
    3819 POLY   1 POL  CG    CG    0.000  1.000
    3820 POLY   1 POL  CG    CG    0.000  1.000
    3821 POLY   1 POL  CG    CG    0.000  1.000
    3822 POLY   1 POL  CG    CG    0.000  1.000
    3823 POLY   1 POL  CG    CG    0.000  1.000
    3824 POLY   1 POL  CG    CG    0.000  1.000
    3825 POLY   1 POL  CG    CG    0.000  1.000
    3826 POLY   1 POL  CG    CG    0.000  1.000
    3827 POLY   1 POL  CG    CG    0.000  1.000
    3828 POLY   1 POL  CG    CG    0.000  1.000
    3829 POLY   1 POL  CG    CG    0.000  1.000
    3830 POLY   1 POL  CG    CG    0.000  1.000
    3831 POLY   1 POL  CG    CG    0.000  1.000
    3832 POLY   1 POL  CG    CG    0.000  1.000
    3833 POLY   1 POL  CG    CG    0.000  1.000
    3834 POLY   1 POL  CG    CG    0.000  1.000
    3835 POLY   1 POL  CG    CG    0.000  1.000
    3836 POLY   1 POL  CG    CG    0.000  1.000
    3837 POLY   1 POL  CG    CG    0.000  1.000
    3838 POLY   1 POL  CG    CG    0.000  1.000
    3839 POLY   1 POL  CG    CG    0.000  1.000
    3840 POLY   1 POL  CG    CG    0.000  1.000
    3841 POLY   1 POL  CG    CG    0.000  1.000
    3842 POLY   1 POL  CG    CG    0.000  1.000
    3843 POLY   1 POL  CG    CG    0.000  1.000
    3844 POLY   1 POL  CG    CG    0.000  1.000
    3845 POLY   1 POL  CG    CG    0.000  1.000
    3846 POLY   1 POL  CG    CG    0.000  1.000
    3847 POLY   1 POL  CG    CG    0.000  1.000
    3848 POLY   1 POL  CG    CG    0.000  1.000
    3849 POLY   1 POL  CG    CG    0.000  1.000
    3850 POLY   1 POL  CG    CG    0.000  1.000
    3851 POLY   1 POL  CG    CG    0.000  1.000
    3852 POLY   1 POL  CG    CG    0.000  1.000
    3853 POLY   1 POL  CG    CG    0.000  1.000
    3854 POLY   1 POL  CG    CG    0.000  1.000
    3855 POLY   1 POL  CG    CG    0.000  1.000
    3856 POLY   1 POL  CG    CG    0.000  1.000
    3857 POLY   1 POL  CG    CG    0.000  1.000
    3858 POLY   1 POL  CG    CG    0.000  1.000
    3859 POLY   1 POL  CG    CG    0.000  1.000
    3860 POLY   1 POL  CG    CG    0.000  1.000
    3861 POLY   1 POL  CG    CG    0.000  1.000
    3862 POLY   1 POL  CG    CG    0.000  1.000
    3863 POLY   1 POL  CG    CG    0.000  1.000
    3864 POLY   1 POL  CG    CG    0.000  1.000
    3865 POLY   1 POL  CG    CG    0.000  1.000
    3866 POLY   1 POL  CG    CG    0.000  1.000
    3867 POLY   1 POL  CG    CG    0.000  1.000
    3868 POLY   1 POL  CG    CG    0.000  1.000
    3869 POLY   1 POL  CG    CG    0.000  1.000
    3870 POLY   1 POL  CG    CG    0.000  1.000
    3871 POLY   1 POL  CG    CG    0.000  1.000
    3872 POLY   1 POL  CG    CG    0.000  1.000
    3873 POLY   1 POL  CG    CG    0.000  1.000
    3874 POLY   1 POL  CG    CG    0.000  1.000
    3875 POLY   1 POL  CG    CG    0.000  1.000
    3876 POLY   1 POL  CG    CG    0.000  1.000
    3877 POLY   1 POL  CG    CG    0.000  1.000
    3878 POLY   1 POL  CG    CG    0.000  1.000
    3879 POLY   1 POL  CG    CG    0.000  1.000
    3880 POLY   1 POL  CG    CG    0.000  1.000
    3881 POLY   1 POL  CG    CG    0.000  1.000
    3882 POLY   1 POL  CG    CG    0.000  1.000
    3883 POLY   1 POL  CG    CG    0.000  1.000
    3884 POLY   1 POL  CG    CG    0.000  1.000
    3885 POLY   1 POL  CG    CG    0.000  1.000
    3886 POLY   1 POL  CG    CG    0.000  1.000
    3887 POLY   1 POL  CG    CG    0.000  1.000
    3888 POLY   1 POL  CG    CG    0.000  1.000
    3889 POLY   1 POL  CG    CG    0.000  1.000
    3890 POLY   1 POL  CG    CG    0.000  1.000
    3891 POLY   1 POL  CG    CG    0.000  1.000
    3892 POLY   1 POL  CG    CG    0.000  1.000
    3893 POLY   1 POL  CG    CG    0.000  1.000
    3894 POLY   1 POL  CG    CG    0.000  1.000
    3895 POLY   1 POL  CG    CG    0.000  1.000
    3896 POLY   1 POL  CG    CG    0.000  1.000
    3897 POLY   1 POL  CG    CG    0.000  1.000
    3898 POLY   1 POL  CG    CG    0.000  1.000
    3899 POLY   1 POL  CG    CG    0.000  1.000
    3900 POLY   1 POL  CG    CG    0.000  1.000
    3901 POLY   1 POL  CG    CG    0.000  1.000
    3902 POLY   1 POL  CG    CG    0.000  1.000
    3903 POLY   1 POL  CG    CG    0.000  1.000
    3904 POLY   1 POL  CG    CG    0.000  1.000
    3905 POLY   1 POL  CG    CG    0.000  1.000
    3906 POLY   1 POL  CG    CG    0.000  1.000
    3907 POLY   1 POL  CG    CG    0.000  1.000
    3908 POLY   1 POL  CG    CG    0.000  1.000
    3909 POLY   1 POL  CG    CG    0.000  1.000
    3910 POLY   1 POL  CG    CG    0.000  1.000
    3911 POLY   1 POL  CG    CG    0.000  1.000
    3912 POLY   1 POL  CG    CG    0.000  1.000
    3913 POLY   1 POL  CG    CG    0.000  1.000
    3914 POLY   1 POL  CG    CG    0.000  1.000
    3915 POLY   1 POL  CG    CG    0.000  1.000
    3916 POLY   1 POL  CG    CG    0.000  1.000
    3917 POLY   1 POL  CG    CG    0.000  1.000
    3918 POLY   1 POL  CG    CG    0.000  1.000
    3919 POLY   1 POL  CG    CG    0.000  1.000
    3920 POLY   1 POL  CG    CG    0.000  1.000
    3921 POLY   1 POL  CG    CG    0.000  1.000
    3922 POLY   1 POL  CG    CG    0.000  1.000
    3923 POLY   1 POL  CG    CG    0.000  1.000
    3924 POLY   1 POL  CG    CG    0.000  1.000
    3925 POLY   1 POL  CG    CG    0.000  1.000
    3926 POLY   1 POL  CG    CG    0.000  1.000
    3927 POLY   1 POL  CG    CG    0.000  1.000
    3928 POLY   1 POL  CG    CG    0.000  1.000
    3929 POLY   1 POL  CG    CG    0.000  1.000
    3930 POLY   1 POL  CG    CG    0.000  1.000
    3931 POLY   1 POL  CG    CG    0.000  1.000
    3932 POLY   1 POL  CG    CG    0.000  1.000
    3933 POLY   1 POL  CG    CG    0.000  1.000
    3934 POLY   1 POL  CG    CG    0.000  1.000
    3935 POLY   1 POL  CG    CG    0.000  1.000
    3936 POLY   1 POL  CG    CG    0.000  1.000
    3937 POLY   1 POL  CG    CG    0.000  1.000
    3938 POLY   1 POL  CG    CG    0.000  1.000
    3939 POLY   1 POL  CG    CG    0.000  1.000
    3940 POLY   1 POL  CG    CG    0.000  1.000
    3941 POLY   1 POL  CG    CG    0.000  1.000
    3942 POLY   1 POL  CG    CG    0.000  1.000
    3943 POLY   1 POL  CG    CG    0.000  1.000
    3944 POLY   1 POL  CG    CG    0.000  1.000
    3945 POLY   1 POL  CG    CG    0.000  1.000
    3946 POLY   1 POL  CG    CG    0.000  1.000
    3947 POLY   1 POL  CG    CG    0.000  1.000
    3948 POLY   1 POL  CG    CG    0.000  1.000
    3949 POLY   1 POL  CG    CG    0.000  1.000
    3950 POLY   1 POL  CG    CG    0.000  1.000
    3951 POLY   1 POL  CG    CG    0.000  1.000
    3952 POLY   1 POL  CG    CG    0.000  1.000
    3953 POLY   1 POL  CG    CG    0.000  1.000
    3954 POLY   1 POL  CG    CG    0.000  1.000
    3955 POLY   1 POL  CG    CG    0.000  1.000
    3956 POLY   1 POL  CG    CG    0.000  1.000
    3957 POLY   1 POL  CG    CG    0.000  1.000
    3958 POLY   1 POL  CG    CG    0.000  1.000
    3959 POLY   1 POL  CG    CG    0.000  1.000
    3960 POLY   1 POL  CG    CG    0.000  1.000
    3961 POLY   1 POL  CG    CG    0.000  1.000
    3962 POLY   1 POL  CG    CG    0.000  1.000
    3963 POLY   1 POL  CG    CG    0.000  1.000
    3964 POLY   1 POL  CG    CG    0.000  1.000
    3965 POLY   1 POL  CG    CG    0.000  1.000
    3966 POLY   1 POL  CG    CG    0.000  1.000
    3967 POLY   1 POL  CG    CG    0.000  1.000
    3968 POLY   1 POL  CG    CG    0.000  1.000
    3969 POLY   1 POL  CG    CG    0.000  1.000
    3970 POLY   1 POL  CG    CG    0.000  1.000
    3971 POLY   1 POL  CG    CG    0.000  1.000
    3972 POLY   1 POL  CG    CG    0.000  1.000
    3973 POLY   1 POL  CG    CG    0.000  1.000
    3974 POLY   1 POL  CG    CG    0.000  1.000
    3975 POLY   1 POL  CG    CG    0.000  1.000
    3976 POLY   1 POL  CG    CG    0.000  1.000
    3977 POLY   1 POL  CG    CG    0.000  1.000
    3978 POLY   1 POL  CG    CG    0.000  1.000
    3979 POLY   1 POL  CG    CG    0.000  1.000
    3980 POLY   1 POL  CG    CG    0.000  1.000
    3981 POLY   1 POL  CG    CG    0.000  1.000
    3982 POLY   1 POL  CG    CG    0.000  1.000
    3983 POLY   1 POL  CG    CG    0.000  1.000
    3984 POLY   1 POL  CG    CG    0.000  1.000
    3985 POLY   1 POL  CG    CG    0.000  1.000
    3986 POLY   1 POL  CG    CG    0.000  1.000
    3987 POLY   1 POL  CG    CG    0.000  1.000
    3988 POLY   1 POL  CG    CG    0.000  1.000
    3989 POLY   1 POL  CG    CG    0.000  1.000
    3990 POLY   1 POL  CG    CG    0.000  1.000
    3991 POLY   1 POL  CG    CG    0.000  1.000
    3992 POLY   1 POL  CG    CG    0.000  1.000
    3993 POLY   1 POL  CG    CG    0.000  1.000
    3994 POLY   1 POL  CG    CG    0.000  1.000
    3995 POLY   1 POL  CG    CG    0.000  1.000
    3996 POLY   1 POL  CG    CG    0.000  1.000
    3997 POLY   1 POL  CG    CG    0.000  1.000
    3998 POLY   1 POL  CG    CG    0.000  1.000
    3999 POLY   1 POL  CG    CG    0.000  1.000
    4000 POLY   1 POL  CG    CG    0.000  1.000
    4001 POLY   1 POL  CG    CG    0.000  1.000
    4002 POLY   1 POL  CG    CG    0.000  1.000
    4003 POLY   1 POL  CG    CG    0.000  1.000
    4004 POLY   1 POL  CG    CG    0.000  1.000
    4005 POLY   1 POL  CG    CG    0.000  1.000
    4006 POLY   1 POL  CG    CG    0.000  1.000
    4007 POLY   1 POL  CG    CG    0.000  1.000
    4008 POLY   1 POL  CG    CG    0.000  1.000
    4009 POLY   1 POL  CG    CG    0.000  1.000
    4010 POLY   1 POL  CG    CG    0.000  1.000
    4011 POLY   1 POL  CG    CG    0.000  1.000
    4012 POLY   1 POL  CG    CG    0.000  1.000
    4013 POLY   1 POL  CG    CG    0.000  1.000
    4014 POLY   1 POL  CG    CG    0.000  1.000
    4015 POLY   1 POL  CG    CG    0.000  1.000
    4016 POLY   1 POL  CG    CG    0.000  1.000
    4017 POLY   1 POL  CG    CG    0.000  1.000
    4018 POLY   1 POL  CG    CG    0.000  1.000
    4019 POLY   1 POL  CG    CG    0.000  1.000
    4020 POLY   1 POL  CG    CG    0.000  1.000
    4021 POLY   1 POL  CG    CG    0.000  1.000
    4022 POLY   1 POL  CG    CG    0.000  1.000
    4023 POLY   1 POL  CG    CG    0.000  1.000
    4024 POLY   1 POL  CG    CG    0.000  1.000
    4025 POLY   1 POL  CG    CG    0.000  1.000
    4026 POLY   1 POL  CG    CG    0.000  1.000
    4027 POLY   1 POL  CG    CG    0.000  1.000
    4028 POLY   1 POL  CG    CG    0.000  1.000
    4029 POLY   1 POL  CG    CG    0.000  1.000
    4030 POLY   1 POL  CG    CG    0.000  1.000
    4031 POLY   1 POL  CG    CG    0.000  1.000
    4032 POLY   1 POL  CG    CG    0.000  1.000
    4033 POLY   1 POL  CG    CG    0.000  1.000
    4034 POLY   1 POL  CG    CG    0.000  1.000
    4035 POLY   1 POL  CG    CG    0.000  1.000
    4036 POLY   1 POL  CG    CG    0.000  1.000
    4037 POLY   1 POL  CG    CG    0.000  1.000
    4038 POLY   1 POL  CG    CG    0.000  1.000
    4039 POLY   1 POL  CG    CG    0.000  1.000
    4040 POLY   1 POL  CG    CG    0.000  1.000
    4041 POLY   1 POL  CG    CG    0.000  1.000
    4042 POLY   1 POL  CG    CG    0.000  1.000
    4043 POLY   1 POL  CG    CG    0.000  1.000
    4044 POLY   1 POL  CG    CG    0.000  1.000
    4045 POLY   1 POL  CG    CG    0.000  1.000
    4046 POLY   1 POL  CG    CG    0.000  1.000
    4047 POLY   1 POL  CG    CG    0.000  1.000
    4048 POLY   1 POL  CG    CG    0.000  1.000
    4049 POLY   1 POL  CG    CG    0.000  1.000
    4050 POLY   1 POL  CG    CG    0.000  1.000
    4051 POLY   1 POL  CG    CG    0.000  1.000
    4052 POLY   1 POL  CG    CG    0.000  1.000
    4053 POLY   1 POL  CG    CG    0.000  1.000
    4054 POLY   1 POL  CG    CG    0.000  1.000
    4055 POLY   1 POL  CG    CG    0.000  1.000
    4056 POLY   1 POL  CG    CG    0.000  1.000
    4057 POLY   1 POL  CG    CG    0.000  1.000
    4058 POLY   1 POL  CG    CG    0.000  1.000
    4059 POLY   1 POL  CG    CG    0.000  1.000
    4060 POLY   1 POL  CG    CG    0.000  1.000
    4061 POLY   1 POL  CG    CG    0.000  1.000
    4062 POLY   1 POL  CG    CG    0.000  1.000
    4063 POLY   1 POL  CG    CG    0.000  1.000
    4064 POLY   1 POL  CG    CG    0.000  1.000
    4065 POLY   1 POL  CG    CG    0.000  1.000
    4066 POLY   1 POL  CG    CG    0.000  1.000
    4067 POLY   1 POL  CG    CG    0.000  1.000
    4068 POLY   1 POL  CG    CG    0.000  1.000
    4069 POLY   1 POL  CG    CG    0.000  1.000
    4070 POLY   1 POL  CG    CG    0.000  1.000
    4071 POLY   1 POL  CG    CG    0.000  1.000
    4072 POLY   1 POL  CG    CG    0.000  1.000
    4073 POLY   1 POL  CG    CG    0.000  1.000
    4074 POLY   1 POL  CG    CG    0.000  1.000
    4075 POLY   1 POL  CG    CG    0.000  1.000
    4076 POLY   1 POL  CG    CG    0.000  1.000
    4077 POLY   1 POL  CG    CG    0.000  1.000
    4078 POLY   1 POL  CG    CG    0.000  1.000
    4079 POLY   1 POL  CG    CG    0.000  1.000
    4080 POLY   1 POL  CG    CG    0.000  1.000
    4081 POLY   1 POL  CG    CG    0.000  1.000
    4082 POLY   1 POL  CG    CG    0.000  1.000
    4083 POLY   1 POL  CG    CG    0.000  1.000
    4084 POLY   1 POL  CG    CG    0.000  1.000
    4085 POLY   1 POL  CG    CG    0.000  1.000
    4086 POLY   1 POL  CG    CG    0.000  1.000
    4087 POLY   1 POL  CG    CG    0.000  1.000
    4088 POLY   1 POL  CG    CG    0.000  1.000
    4089 POLY   1 POL  CG    CG    0.000  1.000
    4090 POLY   1 POL  CG    CG    0.000  1.000
    4091 POLY   1 POL  CG    CG    0.000  1.000
    4092 POLY   1 POL  CG    CG    0.000  1.000
    4093 POLY   1 POL  CG    CG    0.000  1.000
    4094 POLY   1 POL  CG    CG    0.000  1.000
    4095 POLY   1 POL  CG    CG    0.000  1.000
    4096 POLY   1 POL  CG    CG    0.000  1.000
    4097 POLY   1 POL  CG    CG    0.000  1.000
    4098 POLY   1 POL  CG    CG    0.000  1.000
    4099 POLY   1 POL  CG    CG    0.000  1.000
    4100 POLY   1 POL  CG    CG    0.000  1.000
    4101 POLY   1 POL  CG    CG    0.000  1.000
    4102 POLY   1 POL  CG    CG    0.000  1.000
    4103 POLY   1 POL  CG    CG    0.000  1.000
    4104 POLY   1 POL  CG    CG    0.000  1.000
    4105 POLY   1 POL  CG    CG    0.000  1.000
    4106 POLY   1 POL  CG    CG    0.000  1.000
    4107 POLY   1 POL  CG    CG    0.000  1.000
    4108 POLY   1 POL  CG    CG    0.000  1.000
    4109 POLY   1 POL  CG    CG    0.000  1.000
    4110 POLY   1 POL  CG    CG    0.000  1.000
    4111 POLY   1 POL  CG    CG    0.000  1.000
    4112 POLY   1 POL  CG    CG    0.000  1.000
    4113 POLY   1 POL  CG    CG    0.000  1.000
    4114 POLY   1 POL  CG    CG    0.000  1.000
    4115 POLY   1 POL  CG    CG    0.000  1.000
    4116 POLY   1 POL  CG    CG    0.000  1.000
    4117 POLY   1 POL  CG    CG    0.000  1.000
    4118 POLY   1 POL  CG    CG    0.000  1.000
    4119 POLY   1 POL  CG    CG    0.000  1.000
    4120 POLY   1 POL  CG    CG    0.000  1.000
    4121 POLY   1 POL  CG    CG    0.000  1.000
    4122 POLY   1 POL  CG    CG    0.000  1.000
    4123 POLY   1 POL  CG    CG    0.000  1.000
    4124 POLY   1 POL  CG    CG    0.000  1.000
    4125 POLY   1 POL  CG    CG    0.000  1.000
    4126 POLY   1 POL  CG    CG    0.000  1.000
    4127 POLY   1 POL  CG    CG    0.000  1.000
    4128 POLY   1 POL  CG    CG    0.000  1.000
    4129 POLY   1 POL  CG    CG    0.000  1.000
    4130 POLY   1 POL  CG    CG    0.000  1.000
    4131 POLY   1 POL  CG    CG    0.000  1.000
    4132 POLY   1 POL  CG    CG    0.000  1.000
    4133 POLY   1 POL  CG    CG    0.000  1.000
    4134 POLY   1 POL  CG    CG    0.000  1.000
    4135 POLY   1 POL  CG    CG    0.000  1.000
    4136 POLY   1 POL  CG    CG    0.000  1.000
    4137 POLY   1 POL  CG    CG    0.000  1.000
    4138 POLY   1 POL  CG    CG    0.000  1.000
    4139 POLY   1 POL  CG    CG    0.000  1.000
    4140 POLY   1 POL  CG    CG    0.000  1.000
    4141 POLY   1 POL  CG    CG    0.000  1.000
    4142 POLY   1 POL  CG    CG    0.000  1.000
    4143 POLY   1 POL  CG    CG    0.000  1.000
    4144 POLY   1 POL  CG    CG    0.000  1.000
    4145 POLY   1 POL  CG    CG    0.000  1.000
    4146 POLY   1 POL  CG    CG    0.000  1.000
    4147 POLY   1 POL  CG    CG    0.000  1.000
    4148 POLY   1 POL  CG    CG    0.000  1.000
    4149 POLY   1 POL  CG    CG    0.000  1.000
    4150 POLY   1 POL  CG    CG    0.000  1.000
    4151 POLY   1 POL  CG    CG    0.000  1.000
    4152 POLY   1 POL  CG    CG    0.000  1.000
    4153 POLY   1 POL  CG    CG    0.000  1.000
    4154 POLY   1 POL  CG    CG    0.000  1.000
    4155 POLY   1 POL  CG    CG    0.000  1.000
    4156 POLY   1 POL  CG    CG    0.000  1.000
    4157 POLY   1 POL  CG    CG    0.000  1.000
    4158 POLY   1 POL  CG    CG    0.000  1.000
    4159 POLY   1 POL  CG    CG    0.000  1.000
    4160 POLY   1 POL  CG    CG    0.000  1.000
    4161 POLY   1 POL  CG    CG    0.000  1.000
    4162 POLY   1 POL  CG    CG    0.000  1.000
    4163 POLY   1 POL  CG    CG    0.000  1.000
    4164 POLY   1 POL  CG    CG    0.000  1.000
    4165 POLY   1 POL  CG    CG    0.000  1.000
    4166 POLY   1 POL  CG    CG    0.000  1.000
    4167 POLY   1 POL  CG    CG    0.000  1.000
    4168 POLY   1 POL  CG    CG    0.000  1.000
    4169 POLY   1 POL  CG    CG    0.000  1.000
    4170 POLY   1 POL  CG    CG    0.000  1.000
    4171 POLY   1 POL  CG    CG    0.000  1.000
    4172 POLY   1 POL  CG    CG    0.000  1.000
    4173 POLY   1 POL  CG    CG    0.000  1.000
    4174 POLY   1 POL  CG    CG    0.000  1.000
    4175 POLY   1 POL  CG    CG    0.000  1.000
    4176 POLY   1 POL  CG    CG    0.000  1.000
    4177 POLY   1 POL  CG    CG    0.000  1.000
    4178 POLY   1 POL  CG    CG    0.000  1.000
    4179 POLY   1 POL  CG    CG    0.000  1.000
    4180 POLY   1 POL  CG    CG    0.000  1.000
    4181 POLY   1 POL  CG    CG    0.000  1.000
    4182 POLY   1 POL  CG    CG    0.000  1.000
    4183 POLY   1 POL  CG    CG    0.000  1.000
    4184 POLY   1 POL  CG    CG    0.000  1.000
    4185 POLY   1 POL  CG    CG    0.000  1.000
    4186 POLY   1 POL  CG    CG    0.000  1.000
    4187 POLY   1 POL  CG    CG    0.000  1.000
    4188 POLY   1 POL  CG    CG    0.000  1.000
    4189 POLY   1 POL  CG    CG    0.000  1.000
    4190 POLY   1 POL  CG    CG    0.000  1.000
    4191 POLY   1 POL  CG    CG    0.000  1.000
    4192 POLY   1 POL  CG    CG    0.000  1.000
    4193 POLY   1 POL  CG    CG    0.000  1.000
    4194 POLY   1 POL  CG    CG    0.000  1.000
    4195 POLY   1 POL  CG    CG    0.000  1.000
    4196 POLY   1 POL  CG    CG    0.000  1.000
    4197 POLY   1 POL  CG    CG    0.000  1.000
    4198 POLY   1 POL  CG    CG    0.000  1.000
    4199 POLY   1 POL  CG    CG    0.000  1.000
    4200 POLY   1 POL  CG    CG    0.000  1.000
    4201 POLY   1 POL  CG    CG    0.000  1.000
    4202 POLY   1 POL  CG    CG    0.000  1.000
    4203 POLY   1 POL  CG    CG    0.000  1.000
    4204 POLY   1 POL  CG    CG    0.000  1.000
    4205 POLY   1 POL  CG    CG    0.000  1.000
    4206 POLY   1 POL  CG    CG    0.000  1.000
    4207 POLY   1 POL  CG    CG    0.000  1.000
    4208 POLY   1 POL  CG    CG    0.000  1.000
    4209 POLY   1 POL  CG    CG    0.000  1.000
    4210 POLY   1 POL  CG    CG    0.000  1.000
    4211 POLY   1 POL  CG    CG    0.000  1.000
    4212 POLY   1 POL  CG    CG    0.000  1.000
    4213 POLY   1 POL  CG    CG    0.000  1.000
    4214 POLY   1 POL  CG    CG    0.000  1.000
    4215 POLY   1 POL  CG    CG    0.000  1.000
    4216 POLY   1 POL  CG    CG    0.000  1.000
    4217 POLY   1 POL  CG    CG    0.000  1.000
    4218 POLY   1 POL  CG    CG    0.000  1.000
    4219 POLY   1 POL  CG    CG    0.000  1.000
    4220 POLY   1 POL  CG    CG    0.000  1.000
    4221 POLY   1 POL  CG    CG    0.000  1.000
    4222 POLY   1 POL  CG    CG    0.000  1.000
    4223 POLY   1 POL  CG    CG    0.000  1.000
    4224 POLY   1 POL  CG    CG    0.000  1.000
    4225 POLY   1 POL  CG    CG    0.000  1.000
    4226 POLY   1 POL  CG    CG    0.000  1.000
    4227 POLY   1 POL  CG    CG    0.000  1.000
    4228 POLY   1 POL  CG    CG    0.000  1.000
    4229 POLY   1 POL  CG    CG    0.000  1.000
    4230 POLY   1 POL  CG    CG    0.000  1.000
    4231 POLY   1 POL  CG    CG    0.000  1.000
    4232 POLY   1 POL  CG    CG    0.000  1.000
    4233 POLY   1 POL  CG    CG    0.000  1.000
    4234 POLY   1 POL  CG    CG    0.000  1.000
    4235 POLY   1 POL  CG    CG    0.000  1.000
    4236 POLY   1 POL  CG    CG    0.000  1.000
    4237 POLY   1 POL  CG    CG    0.000  1.000
    4238 POLY   1 POL  CG    CG    0.000  1.000
    4239 POLY   1 POL  CG    CG    0.000  1.000
    4240 POLY   1 POL  CG    CG    0.000  1.000
    4241 POLY   1 POL  CG    CG    0.000  1.000
    4242 POLY   1 POL  CG    CG    0.000  1.000
    4243 POLY   1 POL  CG    CG    0.000  1.000
    4244 POLY   1 POL  CG    CG    0.000  1.000
    4245 POLY   1 POL  CG    CG    0.000  1.000
    4246 POLY   1 POL  CG    CG    0.000  1.000
    4247 POLY   1 POL  CG    CG    0.000  1.000
    4248 POLY   1 POL  CG    CG    0.000  1.000
    4249 POLY   1 POL  CG    CG    0.000  1.000
    4250 POLY   1 POL  CG    CG    0.000  1.000
    4251 POLY   1 POL  CG    CG    0.000  1.000
    4252 POLY   1 POL  CG    CG    0.000  1.000
    4253 POLY   1 POL  CG    CG    0.000  1.000
    4254 POLY   1 POL  CG    CG    0.000  1.000
    4255 POLY   1 POL  CG    CG    0.000  1.000
    4256 POLY   1 POL  CG    CG    0.000  1.000
    4257 POLY   1 POL  CG    CG    0.000  1.000
    4258 POLY   1 POL  CG    CG    0.000  1.000
    4259 POLY   1 POL  CG    CG    0.000  1.000
    4260 POLY   1 POL  CG    CG    0.000  1.000
    4261 POLY   1 POL  CG    CG    0.000  1.000
    4262 POLY   1 POL  CG    CG    0.000  1.000
    4263 POLY   1 POL  CG    CG    0.000  1.000
    4264 POLY   1 POL  CG    CG    0.000  1.000
    4265 POLY   1 POL  CG    CG    0.000  1.000
    4266 POLY   1 POL  CG    CG    0.000  1.000
    4267 POLY   1 POL  CG    CG    0.000  1.000
    4268 POLY   1 POL  CG    CG    0.000  1.000
    4269 POLY   1 POL  CG    CG    0.000  1.000
    4270 POLY   1 POL  CG    CG    0.000  1.000
    4271 POLY   1 POL  CG    CG    0.000  1.000
    4272 POLY   1 POL  CG    CG    0.000  1.000
    4273 POLY   1 POL  CG    CG    0.000  1.000
    4274 POLY   1 POL  CG    CG    0.000  1.000
    4275 POLY   1 POL  CG    CG    0.000  1.000
    4276 POLY   1 POL  CG    CG    0.000  1.000
    4277 POLY   1 POL  CG    CG    0.000  1.000
    4278 POLY   1 POL  CG    CG    0.000  1.000
    4279 POLY   1 POL  CG    CG    0.000  1.000
    4280 POLY   1 POL  CG    CG    0.000  1.000
    4281 POLY   1 POL  CG    CG    0.000  1.000
    4282 POLY   1 POL  CG    CG    0.000  1.000
    4283 POLY   1 POL  CG    CG    0.000  1.000
    4284 POLY   1 POL  CG    CG    0.000  1.000
    4285 POLY   1 POL  CG    CG    0.000  1.000
    4286 POLY   1 POL  CG    CG    0.000  1.000
    4287 POLY   1 POL  CG    CG    0.000  1.000
    4288 POLY   1 POL  CG    CG    0.000  1.000
    4289 POLY   1 POL  CG    CG    0.000  1.000
    4290 POLY   1 POL  CG    CG    0.000  1.000
    4291 POLY   1 POL  CG    CG    0.000  1.000
    4292 POLY   1 POL  CG    CG    0.000  1.000
    4293 POLY   1 POL  CG    CG    0.000  1.000
    4294 POLY   1 POL  CG    CG    0.000  1.000
    4295 POLY   1 POL  CG    CG    0.000  1.000
    4296 POLY   1 POL  CG    CG    0.000  1.000
    4297 POLY   1 POL  CG    CG    0.000  1.000
    4298 POLY   1 POL  CG    CG    0.000  1.000
    4299 POLY   1 POL  CG    CG    0.000  1.000
    4300 POLY   1 POL  CG    CG    0.000  1.000
    4301 POLY   1 POL  CG    CG    0.000  1.000
    4302 POLY   1 POL  CG    CG    0.000  1.000
    4303 POLY   1 POL  CG    CG    0.000  1.000
    4304 POLY   1 POL  CG    CG    0.000  1.000
    4305 POLY   1 POL  CG    CG    0.000  1.000
    4306 POLY   1 POL  CG    CG    0.000  1.000
    4307 POLY   1 POL  CG    CG    0.000  1.000
    4308 POLY   1 POL  CG    CG    0.000  1.000
    4309 POLY   1 POL  CG    CG    0.000  1.000
    4310 POLY   1 POL  CG    CG    0.000  1.000
    4311 POLY   1 POL  CG    CG    0.000  1.000
    4312 POLY   1 POL  CG    CG    0.000  1.000
    4313 POLY   1 POL  CG    CG    0.000  1.000
    4314 POLY   1 POL  CG    CG    0.000  1.000
    4315 POLY   1 POL  CG    CG    0.000  1.000
    4316 POLY   1 POL  CG    CG    0.000  1.000
    4317 POLY   1 POL  CG    CG    0.000  1.000
    4318 POLY   1 POL  CG    CG    0.000  1.000
    4319 POLY   1 POL  CG    CG    0.000  1.000
    4320 POLY   1 POL  CG    CG    0.000  1.000
    4321 POLY   1 POL  CG    CG    0.000  1.000
    4322 POLY   1 POL  CG    CG    0.000  1.000
    4323 POLY   1 POL  CG    CG    0.000  1.000
    4324 POLY   1 POL  CG    CG    0.000  1.000
    4325 POLY   1 POL  CG    CG    0.000  1.000
    4326 POLY   1 POL  CG    CG    0.000  1.000
    4327 POLY   1 POL  CG    CG    0.000  1.000
    4328 POLY   1 POL  CG    CG    0.000  1.000
    4329 POLY   1 POL  CG    CG    0.000  1.000
    4330 POLY   1 POL  CG    CG    0.000  1.000
    4331 POLY   1 POL  CG    CG    0.000  1.000
    4332 POLY   1 POL  CG    CG    0.000  1.000
    4333 POLY   1 POL  CG    CG    0.000  1.000
    4334 POLY   1 POL  CG    CG    0.000  1.000
    4335 POLY   1 POL  CG    CG    0.000  1.000
    4336 POLY   1 POL  CG    CG    0.000  1.000
    4337 POLY   1 POL  CG    CG    0.000  1.000
    4338 POLY   1 POL  CG    CG    0.000  1.000
    4339 POLY   1 POL  CG    CG    0.000  1.000
    4340 POLY   1 POL  CG    CG    0.000  1.000
    4341 POLY   1 POL  CG    CG    0.000  1.000
    4342 POLY   1 POL  CG    CG    0.000  1.000
    4343 POLY   1 POL  CG    CG    0.000  1.000
    4344 POLY   1 POL  CG    CG    0.000  1.000
    4345 POLY   1 POL  CG    CG    0.000  1.000
    4346 POLY   1 POL  CG    CG    0.000  1.000
    4347 POLY   1 POL  CG    CG    0.000  1.000
    4348 POLY   1 POL  CG    CG    0.000  1.000
    4349 POLY   1 POL  CG    CG    0.000  1.000
    4350 POLY   1 POL  CG    CG    0.000  1.000
    4351 POLY   1 POL  CG    CG    0.000  1.000
    4352 POLY   1 POL  CG    CG    0.000  1.000
    4353 POLY   1 POL  CG    CG    0.000  1.000
    4354 POLY   1 POL  CG    CG    0.000  1.000
    4355 POLY   1 POL  CG    CG    0.000  1.000
    4356 POLY   1 POL  CG    CG    0.000  1.000
    4357 POLY   1 POL  CG    CG    0.000  1.000
    4358 POLY   1 POL  CG    CG    0.000  1.000
    4359 POLY   1 POL  CG    CG    0.000  1.000
    4360 POLY   1 POL  CG    CG    0.000  1.000
    4361 POLY   1 POL  CG    CG    0.000  1.000
    4362 POLY   1 POL  CG    CG    0.000  1.000
    4363 POLY   1 POL  CG    CG    0.000  1.000
    4364 POLY   1 POL  CG    CG    0.000  1.000
    4365 POLY   1 POL  CG    CG    0.000  1.000
    4366 POLY   1 POL  CG    CG    0.000  1.000
    4367 POLY   1 POL  CG    CG    0.000  1.000
    4368 POLY   1 POL  CG    CG    0.000  1.000
    4369 POLY   1 POL  CG    CG    0.000  1.000
    4370 POLY   1 POL  CG    CG    0.000  1.000
    4371 POLY   1 POL  CG    CG    0.000  1.000
    4372 POLY   1 POL  CG    CG    0.000  1.000
    4373 POLY   1 POL  CG    CG    0.000  1.000
    4374 POLY   1 POL  CG    CG    0.000  1.000
    4375 POLY   1 POL  CG    CG    0.000  1.000
    4376 POLY   1 POL  CG    CG    0.000  1.000
    4377 POLY   1 POL  CG    CG    0.000  1.000
    4378 POLY   1 POL  CG    CG    0.000  1.000
    4379 POLY   1 POL  CG    CG    0.000  1.000
    4380 POLY   1 POL  CG    CG    0.000  1.000
    4381 POLY   1 POL  CG    CG    0.000  1.000
    4382 POLY   1 POL  CG    CG    0.000  1.000
    4383 POLY   1 POL  CG    CG    0.000  1.000
    4384 POLY   1 POL  CG    CG    0.000  1.000
    4385 POLY   1 POL  CG    CG    0.000  1.000
    4386 POLY   1 POL  CG    CG    0.000  1.000
    4387 POLY   1 POL  CG    CG    0.000  1.000
    4388 POLY   1 POL  CG    CG    0.000  1.000
    4389 POLY   1 POL  CG    CG    0.000  1.000
    4390 POLY   1 POL  CG    CG    0.000  1.000
    4391 POLY   1 POL  CG    CG    0.000  1.000
    4392 POLY   1 POL  CG    CG    0.000  1.000
    4393 POLY   1 POL  CG    CG    0.000  1.000
    4394 POLY   1 POL  CG    CG    0.000  1.000
    4395 POLY   1 POL  CG    CG    0.000  1.000
    4396 POLY   1 POL  CG    CG    0.000  1.000
    4397 POLY   1 POL  CG    CG    0.000  1.000
    4398 POLY   1 POL  CG    CG    0.000  1.000
    4399 POLY   1 POL  CG    CG    0.000  1.000
    4400 POLY   1 POL  CG    CG    0.000  1.000
    4401 POLY   1 POL  CG    CG    0.000  1.000
    4402 POLY   1 POL  CG    CG    0.000  1.000
    4403 POLY   1 POL  CG    CG    0.000  1.000
    4404 POLY   1 POL  CG    CG    0.000  1.000
    4405 POLY   1 POL  CG    CG    0.000  1.000
    4406 POLY   1 POL  CG    CG    0.000  1.000
    4407 POLY   1 POL  CG    CG    0.000  1.000
    4408 POLY   1 POL  CG    CG    0.000  1.000
    4409 POLY   1 POL  CG    CG    0.000  1.000
    4410 POLY   1 POL  CG    CG    0.000  1.000
    4411 POLY   1 POL  CG    CG    0.000  1.000
    4412 POLY   1 POL  CG    CG    0.000  1.000
    4413 POLY   1 POL  CG    CG    0.000  1.000
    4414 POLY   1 POL  CG    CG    0.000  1.000
    4415 POLY   1 POL  CG    CG    0.000  1.000
    4416 POLY   1 POL  CG    CG    0.000  1.000
    4417 POLY   1 POL  CG    CG    0.000  1.000
    4418 POLY   1 POL  CG    CG    0.000  1.000
    4419 POLY   1 POL  CG    CG    0.000  1.000
    4420 POLY   1 POL  CG    CG    0.000  1.000
    4421 POLY   1 POL  CG    CG    0.000  1.000
    4422 POLY   1 POL  CG    CG    0.000  1.000
    4423 POLY   1 POL  CG    CG    0.000  1.000
    4424 POLY   1 POL  CG    CG    0.000  1.000
    4425 POLY   1 POL  CG    CG    0.000  1.000
    4426 POLY   1 POL  CG    CG    0.000  1.000
    4427 POLY   1 POL  CG    CG    0.000  1.000
    4428 POLY   1 POL  CG    CG    0.000  1.000
    4429 POLY   1 POL  CG    CG    0.000  1.000
    4430 POLY   1 POL  CG    CG    0.000  1.000
    4431 POLY   1 POL  CG    CG    0.000  1.000
    4432 POLY   1 POL  CG    CG    0.000  1.000
    4433 POLY   1 POL  CG    CG    0.000  1.000
    4434 POLY   1 POL  CG    CG    0.000  1.000
    4435 POLY   1 POL  CG    CG    0.000  1.000
    4436 POLY   1 POL  CG    CG    0.000  1.000
    4437 POLY   1 POL  CG    CG    0.000  1.000
    4438 POLY   1 POL  CG    CG    0.000  1.000
    4439 POLY   1 POL  CG    CG    0.000  1.000
    4440 POLY   1 POL  CG    CG    0.000  1.000
    4441 POLY   1 POL  CG    CG    0.000  1.000
    4442 POLY   1 POL  CG    CG    0.000  1.000
    4443 POLY   1 POL  CG    CG    0.000  1.000
    4444 POLY   1 POL  CG    CG    0.000  1.000
    4445 POLY   1 POL  CG    CG    0.000  1.000
    4446 POLY   1 POL  CG    CG    0.000  1.000
    4447 POLY   1 POL  CG    CG    0.000  1.000
    4448 POLY   1 POL  CG    CG    0.000  1.000
    4449 POLY   1 POL  CG    CG    0.000  1.000
    4450 POLY   1 POL  CG    CG    0.000  1.000
    4451 POLY   1 POL  CG    CG    0.000  1.000
    4452 POLY   1 POL  CG    CG    0.000  1.000
    4453 POLY   1 POL  CG    CG    0.000  1.000
    4454 POLY   1 POL  CG    CG    0.000  1.000
    4455 POLY   1 POL  CG    CG    0.000  1.000
    4456 POLY   1 POL  CG    CG    0.000  1.000
    4457 POLY   1 POL  CG    CG    0.000  1.000
    4458 POLY   1 POL  CG    CG    0.000  1.000
    4459 POLY   1 POL  CG    CG    0.000  1.000
    4460 POLY   1 POL  CG    CG    0.000  1.000
    4461 POLY   1 POL  CG    CG    0.000  1.000
    4462 POLY   1 POL  CG    CG    0.000  1.000
    4463 POLY   1 POL  CG    CG    0.000  1.000
    4464 POLY   1 POL  CG    CG    0.000  1.000
    4465 POLY   1 POL  CG    CG    0.000  1.000
    4466 POLY   1 POL  CG    CG    0.000  1.000
    4467 POLY   1 POL  CG    CG    0.000  1.000
    4468 POLY   1 POL  CG    CG    0.000  1.000
    4469 POLY   1 POL  CG    CG    0.000  1.000
    4470 POLY   1 POL  CG    CG    0.000  1.000
    4471 POLY   1 POL  CG    CG    0.000  1.000
    4472 POLY   1 POL  CG    CG    0.000  1.000
    4473 POLY   1 POL  CG    CG    0.000  1.000
    4474 POLY   1 POL  CG    CG    0.000  1.000
    4475 POLY   1 POL  CG    CG    0.000  1.000
    4476 POLY   1 POL  CG    CG    0.000  1.000
    4477 POLY   1 POL  CG    CG    0.000  1.000
    4478 POLY   1 POL  CG    CG    0.000  1.000
    4479 POLY   1 POL  CG    CG    0.000  1.000
    4480 POLY   1 POL  CG    CG    0.000  1.000
    4481 POLY   1 POL  CG    CG    0.000  1.000
    4482 POLY   1 POL  CG    CG    0.000  1.000
    4483 POLY   1 POL  CG    CG    0.000  1.000
    4484 POLY   1 POL  CG    CG    0.000  1.000
    4485 POLY   1 POL  CG    CG    0.000  1.000
    4486 POLY   1 POL  CG    CG    0.000  1.000
    4487 POLY   1 POL  CG    CG    0.000  1.000
    4488 POLY   1 POL  CG    CG    0.000  1.000
    4489 POLY   1 POL  CG    CG    0.000  1.000
    4490 POLY   1 POL  CG    CG    0.000  1.000
    4491 POLY   1 POL  CG    CG    0.000  1.000
    4492 POLY   1 POL  CG    CG    0.000  1.000
    4493 POLY   1 POL  CG    CG    0.000  1.000
    4494 POLY   1 POL  CG    CG    0.000  1.000
    4495 POLY   1 POL  CG    CG    0.000  1.000
    4496 POLY   1 POL  CG    CG    0.000  1.000
    4497 POLY   1 POL  CG    CG    0.000  1.000
    4498 POLY   1 POL  CG    CG    0.000  1.000
    4499 POLY   1 POL  CG    CG    0.000  1.000
    4500 POLY   1 POL  CG    CG    0.000  1.000
    4501 POLY   1 POL  CG    CG    0.000  1.000
    4502 POLY   1 POL  CG    CG    0.000  1.000
    4503 POLY   1 POL  CG    CG    0.000  1.000
    4504 POLY   1 POL  CG    CG    0.000  1.000
    4505 POLY   1 POL  CG    CG    0.000  1.000
    4506 POLY   1 POL  CG    CG    0.000  1.000
    4507 POLY   1 POL  CG    CG    0.000  1.000
    4508 POLY   1 POL  CG    CG    0.000  1.000
    4509 POLY   1 POL  CG    CG    0.000  1.000
    4510 POLY   1 POL  CG    CG    0.000  1.000
    4511 POLY   1 POL  CG    CG    0.000  1.000
    4512 POLY   1 POL  CG    CG    0.000  1.000
    4513 POLY   1 POL  CG    CG    0.000  1.000
    4514 POLY   1 POL  CG    CG    0.000  1.000
    4515 POLY   1 POL  CG    CG    0.000  1.000
    4516 POLY   1 POL  CG    CG    0.000  1.000
    4517 POLY   1 POL  CG    CG    0.000  1.000
    4518 POLY   1 POL  CG    CG    0.000  1.000
    4519 POLY   1 POL  CG    CG    0.000  1.000
    4520 POLY   1 POL  CG    CG    0.000  1.000
    4521 POLY   1 POL  CG    CG    0.000  1.000
    4522 POLY   1 POL  CG    CG    0.000  1.000
    4523 POLY   1 POL  CG    CG    0.000  1.000
    4524 POLY   1 POL  CG    CG    0.000  1.000
    4525 POLY   1 POL  CG    CG    0.000  1.000
    4526 POLY   1 POL  CG    CG    0.000  1.000
    4527 POLY   1 POL  CG    CG    0.000  1.000
    4528 POLY   1 POL  CG    CG    0.000  1.000
    4529 POLY   1 POL  CG    CG    0.000  1.000
    4530 POLY   1 POL  CG    CG    0.000  1.000
    4531 POLY   1 POL  CG    CG    0.000  1.000
    4532 POLY   1 POL  CG    CG    0.000  1.000
    4533 POLY   1 POL  CG    CG    0.000  1.000
    4534 POLY   1 POL  CG    CG    0.000  1.000
    4535 POLY   1 POL  CG    CG    0.000  1.000
    4536 POLY   1 POL  CG    CG    0.000  1.000
    4537 POLY   1 POL  CG    CG    0.000  1.000
    4538 POLY   1 POL  CG    CG    0.000  1.000
    4539 POLY   1 POL  CG    CG    0.000  1.000
    4540 POLY   1 POL  CG    CG    0.000  1.000
    4541 POLY   1 POL  CG    CG    0.000  1.000
    4542 POLY   1 POL  CG    CG    0.000  1.000
    4543 POLY   1 POL  CG    CG    0.000  1.000
    4544 POLY   1 POL  CG    CG    0.000  1.000
    4545 POLY   1 POL  CG    CG    0.000  1.000
    4546 POLY   1 POL  CG    CG    0.000  1.000
    4547 POLY   1 POL  CG    CG    0.000  1.000
    4548 POLY   1 POL  CG    CG    0.000  1.000
    4549 POLY   1 POL  CG    CG    0.000  1.000
    4550 POLY   1 POL  CG    CG    0.000  1.000
    4551 POLY   1 POL  CG    CG    0.000  1.000
    4552 POLY   1 POL  CG    CG    0.000  1.000
    4553 POLY   1 POL  CG    CG    0.000  1.000
    4554 POLY   1 POL  CG    CG    0.000  1.000
    4555 POLY   1 POL  CG    CG    0.000  1.000
    4556 POLY   1 POL  CG    CG    0.000  1.000
    4557 POLY   1 POL  CG    CG    0.000  1.000
    4558 POLY   1 POL  CG    CG    0.000  1.000
    4559 POLY   1 POL  CG    CG    0.000  1.000
    4560 POLY   1 POL  CG    CG    0.000  1.000
    4561 POLY   1 POL  CG    CG    0.000  1.000
    4562 POLY   1 POL  CG    CG    0.000  1.000
    4563 POLY   1 POL  CG    CG    0.000  1.000
    4564 POLY   1 POL  CG    CG    0.000  1.000
    4565 POLY   1 POL  CG    CG    0.000  1.000
    4566 POLY   1 POL  CG    CG    0.000  1.000
    4567 POLY   1 POL  CG    CG    0.000  1.000
    4568 POLY   1 POL  CG    CG    0.000  1.000
    4569 POLY   1 POL  CG    CG    0.000  1.000
    4570 POLY   1 POL  CG    CG    0.000  1.000
    4571 POLY   1 POL  CG    CG    0.000  1.000
    4572 POLY   1 POL  CG    CG    0.000  1.000
    4573 POLY   1 POL  CG    CG    0.000  1.000
    4574 POLY   1 POL  CG    CG    0.000  1.000
    4575 POLY   1 POL  CG    CG    0.000  1.000
    4576 POLY   1 POL  CG    CG    0.000  1.000
    4577 POLY   1 POL  CG    CG    0.000  1.000
    4578 POLY   1 POL  CG    CG    0.000  1.000
    4579 POLY   1 POL  CG    CG    0.000  1.000
    4580 POLY   1 POL  CG    CG    0.000  1.000
    4581 POLY   1 POL  CG    CG    0.000  1.000
    4582 POLY   1 POL  CG    CG    0.000  1.000
    4583 POLY   1 POL  CG    CG    0.000  1.000
    4584 POLY   1 POL  CG    CG    0.000  1.000
    4585 POLY   1 POL  CG    CG    0.000  1.000
    4586 POLY   1 POL  CG    CG    0.000  1.000
    4587 POLY   1 POL  CG    CG    0.000  1.000
    4588 POLY   1 POL  CG    CG    0.000  1.000
    4589 POLY   1 POL  CG    CG    0.000  1.000
    4590 POLY   1 POL  CG    CG    0.000  1.000
    4591 POLY   1 POL  CG    CG    0.000  1.000
    4592 POLY   1 POL  CG    CG    0.000  1.000
    4593 POLY   1 POL  CG    CG    0.000  1.000
    4594 POLY   1 POL  CG    CG    0.000  1.000
    4595 POLY   1 POL  CG    CG    0.000  1.000
    4596 POLY   1 POL  CG    CG    0.000  1.000
    4597 POLY   1 POL  CG    CG    0.000  1.000
    4598 POLY   1 POL  CG    CG    0.000  1.000
    4599 POLY   1 POL  CG    CG    0.000  1.000
    4600 POLY   1 POL  CG    CG    0.000  1.000
    4601 POLY   1 POL  CG    CG    0.000  1.000
    4602 POLY   1 POL  CG    CG    0.000  1.000
    4603 POLY   1 POL  CG    CG    0.000  1.000
    4604 POLY   1 POL  CG    CG    0.000  1.000
    4605 POLY   1 POL  CG    CG    0.000  1.000
    4606 POLY   1 POL  CG    CG    0.000  1.000
    4607 POLY   1 POL  CG    CG    0.000  1.000
    4608 POLY   1 POL  CG    CG    0.000  1.000
    4609 POLY   1 POL  CG    CG    0.000  1.000
    4610 POLY   1 POL  CG    CG    0.000  1.000
    4611 POLY   1 POL  CG    CG    0.000  1.000
    4612 POLY   1 POL  CG    CG    0.000  1.000
    4613 POLY   1 POL  CG    CG    0.000  1.000
    4614 POLY   1 POL  CG    CG    0.000  1.000
    4615 POLY   1 POL  CG    CG    0.000  1.000
    4616 POLY   1 POL  CG    CG    0.000  1.000
    4617 POLY   1 POL  CG    CG    0.000  1.000
    4618 POLY   1 POL  CG    CG    0.000  1.000
    4619 POLY   1 POL  CG    CG    0.000  1.000
    4620 POLY   1 POL  CG    CG    0.000  1.000
    4621 POLY   1 POL  CG    CG    0.000  1.000
    4622 POLY   1 POL  CG    CG    0.000  1.000
    4623 POLY   1 POL  CG    CG    0.000  1.000
    4624 POLY   1 POL  CG    CG    0.000  1.000
    4625 POLY   1 POL  CG    CG    0.000  1.000
    4626 POLY   1 POL  CG    CG    0.000  1.000
    4627 POLY   1 POL  CG    CG    0.000  1.000
    4628 POLY   1 POL  CG    CG    0.000  1.000
    4629 POLY   1 POL  CG    CG    0.000  1.000
    4630 POLY   1 POL  CG    CG    0.000  1.000
    4631 POLY   1 POL  CG    CG    0.000  1.000
    4632 POLY   1 POL  CG    CG    0.000  1.000
    4633 POLY   1 POL  CG    CG    0.000  1.000
    4634 POLY   1 POL  CG    CG    0.000  1.000
    4635 POLY   1 POL  CG    CG    0.000  1.000
    4636 POLY   1 POL  CG    CG    0.000  1.000
    4637 POLY   1 POL  CG    CG    0.000  1.000
    4638 POLY   1 POL  CG    CG    0.000  1.000
    4639 POLY   1 POL  CG    CG    0.000  1.000
    4640 POLY   1 POL  CG    CG    0.000  1.000
    4641 POLY   1 POL  CG    CG    0.000  1.000
    4642 POLY   1 POL  CG    CG    0.000  1.000
    4643 POLY   1 POL  CG    CG    0.000  1.000
    4644 POLY   1 POL  CG    CG    0.000  1.000
    4645 POLY   1 POL  CG    CG    0.000  1.000
    4646 POLY   1 POL  CG    CG    0.000  1.000
    4647 POLY   1 POL  CG    CG    0.000  1.000
    4648 POLY   1 POL  CG    CG    0.000  1.000
    4649 POLY   1 POL  CG    CG    0.000  1.000
    4650 POLY   1 POL  CG    CG    0.000  1.000
    4651 POLY   1 POL  CG    CG    0.000  1.000
    4652 POLY   1 POL  CG    CG    0.000  1.000
    4653 POLY   1 POL  CG    CG    0.000  1.000
    4654 POLY   1 POL  CG    CG    0.000  1.000
    4655 POLY   1 POL  CG    CG    0.000  1.000
    4656 POLY   1 POL  CG    CG    0.000  1.000
    4657 POLY   1 POL  CG    CG    0.000  1.000
    4658 POLY   1 POL  CG    CG    0.000  1.000
    4659 POLY   1 POL  CG    CG    0.000  1.000
    4660 POLY   1 POL  CG    CG    0.000  1.000
    4661 POLY   1 POL  CG    CG    0.000  1.000
    4662 POLY   1 POL  CG    CG    0.000  1.000
    4663 POLY   1 POL  CG    CG    0.000  1.000
    4664 POLY   1 POL  CG    CG    0.000  1.000
    4665 POLY   1 POL  CG    CG    0.000  1.000
    4666 POLY   1 POL  CG    CG    0.000  1.000
    4667 POLY   1 POL  CG    CG    0.000  1.000
    4668 POLY   1 POL  CG    CG    0.000  1.000
    4669 POLY   1 POL  CG    CG    0.000  1.000
    4670 POLY   1 POL  CG    CG    0.000  1.000
    4671 POLY   1 POL  CG    CG    0.000  1.000
    4672 POLY   1 POL  CG    CG    0.000  1.000
    4673 POLY   1 POL  CG    CG    0.000  1.000
    4674 POLY   1 POL  CG    CG    0.000  1.000
    4675 POLY   1 POL  CG    CG    0.000  1.000
    4676 POLY   1 POL  CG    CG    0.000  1.000
    4677 POLY   1 POL  CG    CG    0.000  1.000
    4678 POLY   1 POL  CG    CG    0.000  1.000
    4679 POLY   1 POL  CG    CG    0.000  1.000
    4680 POLY   1 POL  CG    CG    0.000  1.000
    4681 POLY   1 POL  CG    CG    0.000  1.000
    4682 POLY   1 POL  CG    CG    0.000  1.000
    4683 POLY   1 POL  CG    CG    0.000  1.000
    4684 POLY   1 POL  CG    CG    0.000  1.000
    4685 POLY   1 POL  CG    CG    0.000  1.000
    4686 POLY   1 POL  CG    CG    0.000  1.000
    4687 POLY   1 POL  CG    CG    0.000  1.000
    4688 POLY   1 POL  CG    CG    0.000  1.000
    4689 POLY   1 POL  CG    CG    0.000  1.000
    4690 POLY   1 POL  CG    CG    0.000  1.000
    4691 POLY   1 POL  CG    CG    0.000  1.000
    4692 POLY   1 POL  CG    CG    0.000  1.000
    4693 POLY   1 POL  CG    CG    0.000  1.000
    4694 POLY   1 POL  CG    CG    0.000  1.000
    4695 POLY   1 POL  CG    CG    0.000  1.000
    4696 POLY   1 POL  CG    CG    0.000  1.000
    4697 POLY   1 POL  CG    CG    0.000  1.000
    4698 POLY   1 POL  CG    CG    0.000  1.000
    4699 POLY   1 POL  CG    CG    0.000  1.000
    4700 POLY   1 POL  CG    CG    0.000  1.000
    4701 POLY   1 POL  CG    CG    0.000  1.000
    4702 POLY   1 POL  CG    CG    0.000  1.000
    4703 POLY   1 POL  CG    CG    0.000  1.000
    4704 POLY   1 POL  CG    CG    0.000  1.000
    4705 POLY   1 POL  CG    CG    0.000  1.000
    4706 POLY   1 POL  CG    CG    0.000  1.000
    4707 POLY   1 POL  CG    CG    0.000  1.000
    4708 POLY   1 POL  CG    CG    0.000  1.000
    4709 POLY   1 POL  CG    CG    0.000  1.000
    4710 POLY   1 POL  CG    CG    0.000  1.000
    4711 POLY   1 POL  CG    CG    0.000  1.000
    4712 POLY   1 POL  CG    CG    0.000  1.000
    4713 POLY   1 POL  CG    CG    0.000  1.000
    4714 POLY   1 POL  CG    CG    0.000  1.000
    4715 POLY   1 POL  CG    CG    0.000  1.000
    4716 POLY   1 POL  CG    CG    0.000  1.000
    4717 POLY   1 POL  CG    CG    0.000  1.000
    4718 POLY   1 POL  CG    CG    0.000  1.000
    4719 POLY   1 POL  CG    CG    0.000  1.000
    4720 POLY   1 POL  CG    CG    0.000  1.000
    4721 POLY   1 POL  CG    CG    0.000  1.000
    4722 POLY   1 POL  CG    CG    0.000  1.000
    4723 POLY   1 POL  CG    CG    0.000  1.000
    4724 POLY   1 POL  CG    CG    0.000  1.000
    4725 POLY   1 POL  CG    CG    0.000  1.000
    4726 POLY   1 POL  CG    CG    0.000  1.000
    4727 POLY   1 POL  CG    CG    0.000  1.000
    4728 POLY   1 POL  CG    CG    0.000  1.000
    4729 POLY   1 POL  CG    CG    0.000  1.000
    4730 POLY   1 POL  CG    CG    0.000  1.000
    4731 POLY   1 POL  CG    CG    0.000  1.000
    4732 POLY   1 POL  CG    CG    0.000  1.000
    4733 POLY   1 POL  CG    CG    0.000  1.000
    4734 POLY   1 POL  CG    CG    0.000  1.000
    4735 POLY   1 POL  CG    CG    0.000  1.000
    4736 POLY   1 POL  CG    CG    0.000  1.000
    4737 POLY   1 POL  CG    CG    0.000  1.000
    4738 POLY   1 POL  CG    CG    0.000  1.000
    4739 POLY   1 POL  CG    CG    0.000  1.000
    4740 POLY   1 POL  CG    CG    0.000  1.000
    4741 POLY   1 POL  CG    CG    0.000  1.000
    4742 POLY   1 POL  CG    CG    0.000  1.000
    4743 POLY   1 POL  CG    CG    0.000  1.000
    4744 POLY   1 POL  CG    CG    0.000  1.000
    4745 POLY   1 POL  CG    CG    0.000  1.000
    4746 POLY   1 POL  CG    CG    0.000  1.000
    4747 POLY   1 POL  CG    CG    0.000  1.000
    4748 POLY   1 POL  CG    CG    0.000  1.000
    4749 POLY   1 POL  CG    CG    0.000  1.000
    4750 POLY   1 POL  CG    CG    0.000  1.000
    4751 POLY   1 POL  CG    CG    0.000  1.000
    4752 POLY   1 POL  CG    CG    0.000  1.000
    4753 POLY   1 POL  CG    CG    0.000  1.000
    4754 POLY   1 POL  CG    CG    0.000  1.000
    4755 POLY   1 POL  CG    CG    0.000  1.000
    4756 POLY   1 POL  CG    CG    0.000  1.000
    4757 POLY   1 POL  CG    CG    0.000  1.000
    4758 POLY   1 POL  CG    CG    0.000  1.000
    4759 POLY   1 POL  CG    CG    0.000  1.000
    4760 POLY   1 POL  CG    CG    0.000  1.000
    4761 POLY   1 POL  CG    CG    0.000  1.000
    4762 POLY   1 POL  CG    CG    0.000  1.000
    4763 POLY   1 POL  CG    CG    0.000  1.000
    4764 POLY   1 POL  CG    CG    0.000  1.000
    4765 POLY   1 POL  CG    CG    0.000  1.000
    4766 POLY   1 POL  CG    CG    0.000  1.000
    4767 POLY   1 POL  CG    CG    0.000  1.000
    4768 POLY   1 POL  CG    CG    0.000  1.000
    4769 POLY   1 POL  CG    CG    0.000  1.000
    4770 POLY   1 POL  CG    CG    0.000  1.000
    4771 POLY   1 POL  CG    CG    0.000  1.000
    4772 POLY   1 POL  CG    CG    0.000  1.000
    4773 POLY   1 POL  CG    CG    0.000  1.000
    4774 POLY   1 POL  CG    CG    0.000  1.000
    4775 POLY   1 POL  CG    CG    0.000  1.000
    4776 POLY   1 POL  CG    CG    0.000  1.000
    4777 POLY   1 POL  CG    CG    0.000  1.000
    4778 POLY   1 POL  CG    CG    0.000  1.000
    4779 POLY   1 POL  CG    CG    0.000  1.000
    4780 POLY   1 POL  CG    CG    0.000  1.000
    4781 POLY   1 POL  CG    CG    0.000  1.000
    4782 POLY   1 POL  CG    CG    0.000  1.000
    4783 POLY   1 POL  CG    CG    0.000  1.000
    4784 POLY   1 POL  CG    CG    0.000  1.000
    4785 POLY   1 POL  CG    CG    0.000  1.000
    4786 POLY   1 POL  CG    CG    0.000  1.000
    4787 POLY   1 POL  CG    CG    0.000  1.000
    4788 POLY   1 POL  CG    CG    0.000  1.000
    4789 POLY   1 POL  CG    CG    0.000  1.000
    4790 POLY   1 POL  CG    CG    0.000  1.000
    4791 POLY   1 POL  CG    CG    0.000  1.000
    4792 POLY   1 POL  CG    CG    0.000  1.000
    4793 POLY   1 POL  CG    CG    0.000  1.000
    4794 POLY   1 POL  CG    CG    0.000  1.000
    4795 POLY   1 POL  CG    CG    0.000  1.000
    4796 POLY   1 POL  CG    CG    0.000  1.000
    4797 POLY   1 POL  CG    CG    0.000  1.000
    4798 POLY   1 POL  CG    CG    0.000  1.000
    4799 POLY   1 POL  CG    CG    0.000  1.000
    4800 POLY   1 POL  CG    CG    0.000  1.000
    4801 POLY   1 POL  CG    CG    0.000  1.000
    4802 POLY   1 POL  CG    CG    0.000  1.000
    4803 POLY   1 POL  CG    CG    0.000  1.000
    4804 POLY   1 POL  CG    CG    0.000  1.000
    4805 POLY   1 POL  CG    CG    0.000  1.000
    4806 POLY   1 POL  CG    CG    0.000  1.000
    4807 POLY   1 POL  CG    CG    0.000  1.000
    4808 POLY   1 POL  CG    CG    0.000  1.000
    4809 POLY   1 POL  CG    CG    0.000  1.000
    4810 POLY   1 POL  CG    CG    0.000  1.000
    4811 POLY   1 POL  CG    CG    0.000  1.000
    4812 POLY   1 POL  CG    CG    0.000  1.000
    4813 POLY   1 POL  CG    CG    0.000  1.000
    4814 POLY   1 POL  CG    CG    0.000  1.000
    4815 POLY   1 POL  CG    CG    0.000  1.000
    4816 POLY   1 POL  CG    CG    0.000  1.000
    4817 POLY   1 POL  CG    CG    0.000  1.000
    4818 POLY   1 POL  CG    CG    0.000  1.000
    4819 POLY   1 POL  CG    CG    0.000  1.000
    4820 POLY   1 POL  CG    CG    0.000  1.000
    4821 POLY   1 POL  CG    CG    0.000  1.000
    4822 POLY   1 POL  CG    CG    0.000  1.000
    4823 POLY   1 POL  CG    CG    0.000  1.000
    4824 POLY   1 POL  CG    CG    0.000  1.000
    4825 POLY   1 POL  CG    CG    0.000  1.000
    4826 POLY   1 POL  CG    CG    0.000  1.000
    4827 POLY   1 POL  CG    CG    0.000  1.000
    4828 POLY   1 POL  CG    CG    0.000  1.000
    4829 POLY   1 POL  CG    CG    0.000  1.000
    4830 POLY   1 POL  CG    CG    0.000  1.000
    4831 POLY   1 POL  CG    CG    0.000  1.000
    4832 POLY   1 POL  CG    CG    0.000  1.000
    4833 POLY   1 POL  CG    CG    0.000  1.000
    4834 POLY   1 POL  CG    CG    0.000  1.000
    4835 POLY   1 POL  CG    CG    0.000  1.000
    4836 POLY   1 POL  CG    CG    0.000  1.000
    4837 POLY   1 POL  CG    CG    0.000  1.000
    4838 POLY   1 POL  CG    CG    0.000  1.000
    4839 POLY   1 POL  CG    CG    0.000  1.000
    4840 POLY   1 POL  CG    CG    0.000  1.000
    4841 POLY   1 POL  CG    CG    0.000  1.000
    4842 POLY   1 POL  CG    CG    0.000  1.000
    4843 POLY   1 POL  CG    CG    0.000  1.000
    4844 POLY   1 POL  CG    CG    0.000  1.000
    4845 POLY   1 POL  CG    CG    0.000  1.000
    4846 POLY   1 POL  CG    CG    0.000  1.000
    4847 POLY   1 POL  CG    CG    0.000  1.000
    4848 POLY   1 POL  CG    CG    0.000  1.000
    4849 POLY   1 POL  CG    CG    0.000  1.000
    4850 POLY   1 POL  CG    CG    0.000  1.000
    4851 POLY   1 POL  CG    CG    0.000  1.000
    4852 POLY   1 POL  CG    CG    0.000  1.000
    4853 POLY   1 POL  CG    CG    0.000  1.000
    4854 POLY   1 POL  CG    CG    0.000  1.000
    4855 POLY   1 POL  CG    CG    0.000  1.000
    4856 POLY   1 POL  CG    CG    0.000  1.000
    4857 POLY   1 POL  CG    CG    0.000  1.000
    4858 POLY   1 POL  CG    CG    0.000  1.000
    4859 POLY   1 POL  CG    CG    0.000  1.000
    4860 POLY   1 POL  CG    CG    0.000  1.000
    4861 POLY   1 POL  CG    CG    0.000  1.000
    4862 POLY   1 POL  CG    CG    0.000  1.000
    4863 POLY   1 POL  CG    CG    0.000  1.000
    4864 POLY   1 POL  CG    CG    0.000  1.000
    4865 POLY   1 POL  CG    CG    0.000  1.000
    4866 POLY   1 POL  CG    CG    0.000  1.000
    4867 POLY   1 POL  CG    CG    0.000  1.000
    4868 POLY   1 POL  CG    CG    0.000  1.000
    4869 POLY   1 POL  CG    CG    0.000  1.000
    4870 POLY   1 POL  CG    CG    0.000  1.000
    4871 POLY   1 POL  CG    CG    0.000  1.000
    4872 POLY   1 POL  CG    CG    0.000  1.000
    4873 POLY   1 POL  CG    CG    0.000  1.000
    4874 POLY   1 POL  CG    CG    0.000  1.000
    4875 POLY   1 POL  CG    CG    0.000  1.000
    4876 POLY   1 POL  CG    CG    0.000  1.000
    4877 POLY   1 POL  CG    CG    0.000  1.000
    4878 POLY   1 POL  CG    CG    0.000  1.000
    4879 POLY   1 POL  CG    CG    0.000  1.000
    4880 POLY   1 POL  CG    CG    0.000  1.000
    4881 POLY   1 POL  CG    CG    0.000  1.000
    4882 POLY   1 POL  CG    CG    0.000  1.000
    4883 POLY   1 POL  CG    CG    0.000  1.000
    4884 POLY   1 POL  CG    CG    0.000  1.000
    4885 POLY   1 POL  CG    CG    0.000  1.000
    4886 POLY   1 POL  CG    CG    0.000  1.000
    4887 POLY   1 POL  CG    CG    0.000  1.000
    4888 POLY   1 POL  CG    CG    0.000  1.000
    4889 POLY   1 POL  CG    CG    0.000  1.000
    4890 POLY   1 POL  CG    CG    0.000  1.000
    4891 POLY   1 POL  CG    CG    0.000  1.000
    4892 POLY   1 POL  CG    CG    0.000  1.000
    4893 POLY   1 POL  CG    CG    0.000  1.000
    4894 POLY   1 POL  CG    CG    0.000  1.000
    4895 POLY   1 POL  CG    CG    0.000  1.000
    4896 POLY   1 POL  CG    CG    0.000  1.000
    4897 POLY   1 POL  CG    CG    0.000  1.000
    4898 POLY   1 POL  CG    CG    0.000  1.000
    4899 POLY   1 POL  CG    CG    0.000  1.000
    4900 POLY   1 POL  CG    CG    0.000  1.000
    4901 POLY   1 POL  CG    CG    0.000  1.000
    4902 POLY   1 POL  CG    CG    0.000  1.000
    4903 POLY   1 POL  CG    CG    0.000  1.000
    4904 POLY   1 POL  CG    CG    0.000  1.000
    4905 POLY   1 POL  CG    CG    0.000  1.000
    4906 POLY   1 POL  CG    CG    0.000  1.000
    4907 POLY   1 POL  CG    CG    0.000  1.000
    4908 POLY   1 POL  CG    CG    0.000  1.000
    4909 POLY   1 POL  CG    CG    0.000  1.000
    4910 POLY   1 POL  CG    CG    0.000  1.000
    4911 POLY   1 POL  CG    CG    0.000  1.000
    4912 POLY   1 POL  CG    CG    0.000  1.000
    4913 POLY   1 POL  CG    CG    0.000  1.000
    4914 POLY   1 POL  CG    CG    0.000  1.000
    4915 POLY   1 POL  CG    CG    0.000  1.000
    4916 POLY   1 POL  CG    CG    0.000  1.000
    4917 POLY   1 POL  CG    CG    0.000  1.000
    4918 POLY   1 POL  CG    CG    0.000  1.000
    4919 POLY   1 POL  CG    CG    0.000  1.000
    4920 POLY   1 POL  CG    CG    0.000  1.000
    4921 POLY   1 POL  CG    CG    0.000  1.000
    4922 POLY   1 POL  CG    CG    0.000  1.000
    4923 POLY   1 POL  CG    CG    0.000  1.000
    4924 POLY   1 POL  CG    CG    0.000  1.000
    4925 POLY   1 POL  CG    CG    0.000  1.000
    4926 POLY   1 POL  CG    CG    0.000  1.000
    4927 POLY   1 POL  CG    CG    0.000  1.000
    4928 POLY   1 POL  CG    CG    0.000  1.000
    4929 POLY   1 POL  CG    CG    0.000  1.000
    4930 POLY   1 POL  CG    CG    0.000  1.000
    4931 POLY   1 POL  CG    CG    0.000  1.000
    4932 POLY   1 POL  CG    CG    0.000  1.000
    4933 POLY   1 POL  CG    CG    0.000  1.000
    4934 POLY   1 POL  CG    CG    0.000  1.000
    4935 POLY   1 POL  CG    CG    0.000  1.000
    4936 POLY   1 POL  CG    CG    0.000  1.000
    4937 POLY   1 POL  CG    CG    0.000  1.000
    4938 POLY   1 POL  CG    CG    0.000  1.000
    4939 POLY   1 POL  CG    CG    0.000  1.000
    4940 POLY   1 POL  CG    CG    0.000  1.000
    4941 POLY   1 POL  CG    CG    0.000  1.000
    4942 POLY   1 POL  CG    CG    0.000  1.000
    4943 POLY   1 POL  CG    CG    0.000  1.000
    4944 POLY   1 POL  CG    CG    0.000  1.000
    4945 POLY   1 POL  CG    CG    0.000  1.000
    4946 POLY   1 POL  CG    CG    0.000  1.000
    4947 POLY   1 POL  CG    CG    0.000  1.000
    4948 POLY   1 POL  CG    CG    0.000  1.000
    4949 POLY   1 POL  CG    CG    0.000  1.000
    4950 POLY   1 POL  CG    CG    0.000  1.000
    4951 POLY   1 POL  CG    CG    0.000  1.000
    4952 POLY   1 POL  CG    CG    0.000  1.000
    4953 POLY   1 POL  CG    CG    0.000  1.000
    4954 POLY   1 POL  CG    CG    0.000  1.000
    4955 POLY   1 POL  CG    CG    0.000  1.000
    4956 POLY   1 POL  CG    CG    0.000  1.000
    4957 POLY   1 POL  CG    CG    0.000  1.000
    4958 POLY   1 POL  CG    CG    0.000  1.000
    4959 POLY   1 POL  CG    CG    0.000  1.000
    4960 POLY   1 POL  CG    CG    0.000  1.000
    4961 POLY   1 POL  CG    CG    0.000  1.000
    4962 POLY   1 POL  CG    CG    0.000  1.000
    4963 POLY   1 POL  CG    CG    0.000  1.000
    4964 POLY   1 POL  CG    CG    0.000  1.000
    4965 POLY   1 POL  CG    CG    0.000  1.000
    4966 POLY   1 POL  CG    CG    0.000  1.000
    4967 POLY   1 POL  CG    CG    0.000  1.000
    4968 POLY   1 POL  CG    CG    0.000  1.000
    4969 POLY   1 POL  CG    CG    0.000  1.000
    4970 POLY   1 POL  CG    CG    0.000  1.000
    4971 POLY   1 POL  CG    CG    0.000  1.000
    4972 POLY   1 POL  CG    CG    0.000  1.000
    4973 POLY   1 POL  CG    CG    0.000  1.000
    4974 POLY   1 POL  CG    CG    0.000  1.000
    4975 POLY   1 POL  CG    CG    0.000  1.000
    4976 POLY   1 POL  CG    CG    0.000  1.000
    4977 POLY   1 POL  CG    CG    0.000  1.000
    4978 POLY   1 POL  CG    CG    0.000  1.000
    4979 POLY   1 POL  CG    CG    0.000  1.000
    4980 POLY   1 POL  CG    CG    0.000  1.000
    4981 POLY   1 POL  CG    CG    0.000  1.000
    4982 POLY   1 POL  CG    CG    0.000  1.000
    4983 POLY   1 POL  CG    CG    0.000  1.000
    4984 POLY   1 POL  CG    CG    0.000  1.000
    4985 POLY   1 POL  CG    CG    0.000  1.000
    4986 POLY   1 POL  CG    CG    0.000  1.000
    4987 POLY   1 POL  CG    CG    0.000  1.000
    4988 POLY   1 POL  CG    CG    0.000  1.000
    4989 POLY   1 POL  CG    CG    0.000  1.000
    4990 POLY   1 POL  CG    CG    0.000  1.000
    4991 POLY   1 POL  CG    CG    0.000  1.000
    4992 POLY   1 POL  CG    CG    0.000  1.000
    4993 POLY   1 POL  CG    CG    0.000  1.000
    4994 POLY   1 POL  CG    CG    0.000  1.000
    4995 POLY   1 POL  CG    CG    0.000  1.000
    4996 POLY   1 POL  CG    CG    0.000  1.000
    4997 POLY   1 POL  CG    CG    0.000  1.000
    4998 POLY   1 POL  CG    CG    0.000  1.000
    4999 POLY   1 POL  CG    CG    0.000  1.000
    5000 POLY   1 POL  CG    CG    0.000  1.000
    5001 POLY   1 POL  CG    CG    0.000  1.000
    5002 POLY   1 POL  CG    CG    0.000  1.000
    5003 POLY   1 POL  CG    CG    0.000  1.000
    5004 POLY   1 POL  CG    CG    0.000  1.000
    5005 POLY   1 POL  CG    CG    0.000  1.000
    5006 POLY   1 POL  CG    CG    0.000  1.000
    5007 POLY   1 POL  CG    CG    0.000  1.000
    5008 POLY   1 POL  CG    CG    0.000  1.000
    5009 POLY   1 POL  CG    CG    0.000  1.000
    5010 POLY   1 POL  CG    CG    0.000  1.000
    5011 POLY   1 POL  CG    CG    0.000  1.000
    5012 POLY   1 POL  CG    CG    0.000  1.000
    5013 POLY   1 POL  CG    CG    0.000  1.000
    5014 POLY   1 POL  CG    CG    0.000  1.000
    5015 POLY   1 POL  CG    CG    0.000  1.000
    5016 POLY   1 POL  CG    CG    0.000  1.000
    5017 POLY   1 POL  CG    CG    0.000  1.000
    5018 POLY   1 POL  CG    CG    0.000  1.000
    5019 POLY   1 POL  CG    CG    0.000  1.000
    5020 POLY   1 POL  CG    CG    0.000  1.000
    5021 POLY   1 POL  CG    CG    0.000  1.000
    5022 POLY   1 POL  CG    CG    0.000  1.000
    5023 POLY   1 POL  CG    CG    0.000  1.000
    5024 POLY   1 POL  CG    CG    0.000  1.000
    5025 POLY   1 POL  CG    CG    0.000  1.000
    5026 POLY   1 POL  CG    CG    0.000  1.000
    5027 POLY   1 POL  CG    CG    0.000  1.000
    5028 POLY   1 POL  CG    CG    0.000  1.000
    5029 POLY   1 POL  CG    CG    0.000  1.000
    5030 POLY   1 POL  CG    CG    0.000  1.000
    5031 POLY   1 POL  CG    CG    0.000  1.000
    5032 POLY   1 POL  CG    CG    0.000  1.000
    5033 POLY   1 POL  CG    CG    0.000  1.000
    5034 POLY   1 POL  CG    CG    0.000  1.000
    5035 POLY   1 POL  CG    CG    0.000  1.000
    5036 POLY   1 POL  CG    CG    0.000  1.000
    5037 POLY   1 POL  CG    CG    0.000  1.000
    5038 POLY   1 POL  CG    CG    0.000  1.000
    5039 POLY   1 POL  CG    CG    0.000  1.000
    5040 POLY   1 POL  CG    CG    0.000  1.000
    5041 POLY   1 POL  CG    CG    0.000  1.000
    5042 POLY   1 POL  CG    CG    0.000  1.000
    5043 POLY   1 POL  CG    CG    0.000  1.000
    5044 POLY   1 POL  CG    CG    0.000  1.000
    5045 POLY   1 POL  CG    CG    0.000  1.000
    5046 POLY   1 POL  CG    CG    0.000  1.000
    5047 POLY   1 POL  CG    CG    0.000  1.000
    5048 POLY   1 POL  CG    CG    0.000  1.000
    5049 POLY   1 POL  CG    CG    0.000  1.000
    5050 POLY   1 POL  CG    CG    0.000  1.000
    5051 POLY   1 POL  CG    CG    0.000  1.000
    5052 POLY   1 POL  CG    CG    0.000  1.000
    5053 POLY   1 POL  CG    CG    0.000  1.000
    5054 POLY   1 POL  CG    CG    0.000  1.000
    5055 POLY   1 POL  CG    CG    0.000  1.000
    5056 POLY   1 POL  CG    CG    0.000  1.000
    5057 POLY   1 POL  CG    CG    0.000  1.000
    5058 POLY   1 POL  CG    CG    0.000  1.000
    5059 POLY   1 POL  CG    CG    0.000  1.000
    5060 POLY   1 POL  CG    CG    0.000  1.000
    5061 POLY   1 POL  CG    CG    0.000  1.000
    5062 POLY   1 POL  CG    CG    0.000  1.000
    5063 POLY   1 POL  CG    CG    0.000  1.000
    5064 POLY   1 POL  CG    CG    0.000  1.000
    5065 POLY   1 POL  CG    CG    0.000  1.000
    5066 POLY   1 POL  CG    CG    0.000  1.000
    5067 POLY   1 POL  CG    CG    0.000  1.000
    5068 POLY   1 POL  CG    CG    0.000  1.000
    5069 POLY   1 POL  CG    CG    0.000  1.000
    5070 POLY   1 POL  CG    CG    0.000  1.000
    5071 POLY   1 POL  CG    CG    0.000  1.000
    5072 POLY   1 POL  CG    CG    0.000  1.000
    5073 POLY   1 POL  CG    CG    0.000  1.000
    5074 POLY   1 POL  CG    CG    0.000  1.000
    5075 POLY   1 POL  CG    CG    0.000  1.000
    5076 POLY   1 POL  CG    CG    0.000  1.000
    5077 POLY   1 POL  CG    CG    0.000  1.000
    5078 POLY   1 POL  CG    CG    0.000  1.000
    5079 POLY   1 POL  CG    CG    0.000  1.000
    5080 POLY   1 POL  CG    CG    0.000  1.000
    5081 POLY   1 POL  CG    CG    0.000  1.000
    5082 POLY   1 POL  CG    CG    0.000  1.000
    5083 POLY   1 POL  CG    CG    0.000  1.000
    5084 POLY   1 POL  CG    CG    0.000  1.000
    5085 POLY   1 POL  CG    CG    0.000  1.000
    5086 POLY   1 POL  CG    CG    0.000  1.000
    5087 POLY   1 POL  CG    CG    0.000  1.000
    5088 POLY   1 POL  CG    CG    0.000  1.000
    5089 POLY   1 POL  CG    CG    0.000  1.000
    5090 POLY   1 POL  CG    CG    0.000  1.000
    5091 POLY   1 POL  CG    CG    0.000  1.000
    5092 POLY   1 POL  CG    CG    0.000  1.000
    5093 POLY   1 POL  CG    CG    0.000  1.000
    5094 POLY   1 POL  CG    CG    0.000  1.000
    5095 POLY   1 POL  CG    CG    0.000  1.000
    5096 POLY   1 POL  CG    CG    0.000  1.000
    5097 POLY   1 POL  CG    CG    0.000  1.000
    5098 POLY   1 POL  CG    CG    0.000  1.000
    5099 POLY   1 POL  CG    CG    0.000  1.000
    5100 POLY   1 POL  CG    CG    0.000  1.000
    5101 POLY   1 POL  CG    CG    0.000  1.000
    5102 POLY   1 POL  CG    CG    0.000  1.000
    5103 POLY   1 POL  CG    CG    0.000  1.000
    5104 POLY   1 POL  CG    CG    0.000  1.000
    5105 POLY   1 POL  CG    CG    0.000  1.000
    5106 POLY   1 POL  CG    CG    0.000  1.000
    5107 POLY   1 POL  CG    CG    0.000  1.000
    5108 POLY   1 POL  CG    CG    0.000  1.000
    5109 POLY   1 POL  CG    CG    0.000  1.000
    5110 POLY   1 POL  CG    CG    0.000  1.000
    5111 POLY   1 POL  CG    CG    0.000  1.000
    5112 POLY   1 POL  CG    CG    0.000  1.000
    5113 POLY   1 POL  CG    CG    0.000  1.000
    5114 POLY   1 POL  CG    CG    0.000  1.000
    5115 POLY   1 POL  CG    CG    0.000  1.000
    5116 POLY   1 POL  CG    CG    0.000  1.000
    5117 POLY   1 POL  CG    CG    0.000  1.000
    5118 POLY   1 POL  CG    CG    0.000  1.000
    5119 POLY   1 POL  CG    CG    0.000  1.000
    5120 POLY   1 POL  CG    CG    0.000  1.000
    5121 POLY   1 POL  CG    CG    0.000  1.000
    5122 POLY   1 POL  CG    CG    0.000  1.000
    5123 POLY   1 POL  CG    CG    0.000  1.000
    5124 POLY   1 POL  CG    CG    0.000  1.000
    5125 POLY   1 POL  CG    CG    0.000  1.000
    5126 POLY   1 POL  CG    CG    0.000  1.000
    5127 POLY   1 POL  CG    CG    0.000  1.000
    5128 POLY   1 POL  CG    CG    0.000  1.000
    5129 POLY   1 POL  CG    CG    0.000  1.000
    5130 POLY   1 POL  CG    CG    0.000  1.000
    5131 POLY   1 POL  CG    CG    0.000  1.000
    5132 POLY   1 POL  CG    CG    0.000  1.000
    5133 POLY   1 POL  CG    CG    0.000  1.000
    5134 POLY   1 POL  CG    CG    0.000  1.000
    5135 POLY   1 POL  CG    CG    0.000  1.000
    5136 POLY   1 POL  CG    CG    0.000  1.000
    5137 POLY   1 POL  CG    CG    0.000  1.000
    5138 POLY   1 POL  CG    CG    0.000  1.000
    5139 POLY   1 POL  CG    CG    0.000  1.000
    5140 POLY   1 POL  CG    CG    0.000  1.000
    5141 POLY   1 POL  CG    CG    0.000  1.000
    5142 POLY   1 POL  CG    CG    0.000  1.000
    5143 POLY   1 POL  CG    CG    0.000  1.000
    5144 POLY   1 POL  CG    CG    0.000  1.000
    5145 POLY   1 POL  CG    CG    0.000  1.000
    5146 POLY   1 POL  CG    CG    0.000  1.000
    5147 POLY   1 POL  CG    CG    0.000  1.000
    5148 POLY   1 POL  CG    CG    0.000  1.000
    5149 POLY   1 POL  CG    CG    0.000  1.000
    5150 POLY   1 POL  CG    CG    0.000  1.000
    5151 POLY   1 POL  CG    CG    0.000  1.000
    5152 POLY   1 POL  CG    CG    0.000  1.000
    5153 POLY   1 POL  CG    CG    0.000  1.000
    5154 POLY   1 POL  CG    CG    0.000  1.000
    5155 POLY   1 POL  CG    CG    0.000  1.000
    5156 POLY   1 POL  CG    CG    0.000  1.000
    5157 POLY   1 POL  CG    CG    0.000  1.000
    5158 POLY   1 POL  CG    CG    0.000  1.000
    5159 POLY   1 POL  CG    CG    0.000  1.000
    5160 POLY   1 POL  CG    CG    0.000  1.000
    5161 POLY   1 POL  CG    CG    0.000  1.000
    5162 POLY   1 POL  CG    CG    0.000  1.000
    5163 POLY   1 POL  CG    CG    0.000  1.000
    5164 POLY   1 POL  CG    CG    0.000  1.000
    5165 POLY   1 POL  CG    CG    0.000  1.000
    5166 POLY   1 POL  CG    CG    0.000  1.000
    5167 POLY   1 POL  CG    CG    0.000  1.000
    5168 POLY   1 POL  CG    CG    0.000  1.000
    5169 POLY   1 POL  CG    CG    0.000  1.000
    5170 POLY   1 POL  CG    CG    0.000  1.000
    5171 POLY   1 POL  CG    CG    0.000  1.000
    5172 POLY   1 POL  CG    CG    0.000  1.000
    5173 POLY   1 POL  CG    CG    0.000  1.000
    5174 POLY   1 POL  CG    CG    0.000  1.000
    5175 POLY   1 POL  CG    CG    0.000  1.000
    5176 POLY   1 POL  CG    CG    0.000  1.000
    5177 POLY   1 POL  CG    CG    0.000  1.000
    5178 POLY   1 POL  CG    CG    0.000  1.000
    5179 POLY   1 POL  CG    CG    0.000  1.000
    5180 POLY   1 POL  CG    CG    0.000  1.000
    5181 POLY   1 POL  CG    CG    0.000  1.000
    5182 POLY   1 POL  CG    CG    0.000  1.000
    5183 POLY   1 POL  CG    CG    0.000  1.000
    5184 POLY   1 POL  CG    CG    0.000  1.000
    5185 POLY   1 POL  CG    CG    0.000  1.000
    5186 POLY   1 POL  CG    CG    0.000  1.000
    5187 POLY   1 POL  CG    CG    0.000  1.000
    5188 POLY   1 POL  CG    CG    0.000  1.000
    5189 POLY   1 POL  CG    CG    0.000  1.000
    5190 POLY   1 POL  CG    CG    0.000  1.000
    5191 POLY   1 POL  CG    CG    0.000  1.000
    5192 POLY   1 POL  CG    CG    0.000  1.000
    5193 POLY   1 POL  CG    CG    0.000  1.000
    5194 POLY   1 POL  CG    CG    0.000  1.000
    5195 POLY   1 POL  CG    CG    0.000  1.000
    5196 POLY   1 POL  CG    CG    0.000  1.000
    5197 POLY   1 POL  CG    CG    0.000  1.000
    5198 POLY   1 POL  CG    CG    0.000  1.000
    5199 POLY   1 POL  CG    CG    0.000  1.000
    5200 POLY   1 POL  CG    CG    0.000  1.000
    5201 POLY   1 POL  CG    CG    0.000  1.000
    5202 POLY   1 POL  CG    CG    0.000  1.000
    5203 POLY   1 POL  CG    CG    0.000  1.000
    5204 POLY   1 POL  CG    CG    0.000  1.000
    5205 POLY   1 POL  CG    CG    0.000  1.000
    5206 POLY   1 POL  CG    CG    0.000  1.000
    5207 POLY   1 POL  CG    CG    0.000  1.000
    5208 POLY   1 POL  CG    CG    0.000  1.000
    5209 POLY   1 POL  CG    CG    0.000  1.000
    5210 POLY   1 POL  CG    CG    0.000  1.000
    5211 POLY   1 POL  CG    CG    0.000  1.000
    5212 POLY   1 POL  CG    CG    0.000  1.000
    5213 POLY   1 POL  CG    CG    0.000  1.000
    5214 POLY   1 POL  CG    CG    0.000  1.000
    5215 POLY   1 POL  CG    CG    0.000  1.000
    5216 POLY   1 POL  CG    CG    0.000  1.000
    5217 POLY   1 POL  CG    CG    0.000  1.000
    5218 POLY   1 POL  CG    CG    0.000  1.000
    5219 POLY   1 POL  CG    CG    0.000  1.000
    5220 POLY   1 POL  CG    CG    0.000  1.000
    5221 POLY   1 POL  CG    CG    0.000  1.000
    5222 POLY   1 POL  CG    CG    0.000  1.000
    5223 POLY   1 POL  CG    CG    0.000  1.000
    5224 POLY   1 POL  CG    CG    0.000  1.000
    5225 POLY   1 POL  CG    CG    0.000  1.000
    5226 POLY   1 POL  CG    CG    0.000  1.000
    5227 POLY   1 POL  CG    CG    0.000  1.000
    5228 POLY   1 POL  CG    CG    0.000  1.000
    5229 POLY   1 POL  CG    CG    0.000  1.000
    5230 POLY   1 POL  CG    CG    0.000  1.000
    5231 POLY   1 POL  CG    CG    0.000  1.000
    5232 POLY   1 POL  CG    CG    0.000  1.000
    5233 POLY   1 POL  CG    CG    0.000  1.000
    5234 POLY   1 POL  CG    CG    0.000  1.000
    5235 POLY   1 POL  CG    CG    0.000  1.000
    5236 POLY   1 POL  CG    CG    0.000  1.000
    5237 POLY   1 POL  CG    CG    0.000  1.000
    5238 POLY   1 POL  CG    CG    0.000  1.000
    5239 POLY   1 POL  CG    CG    0.000  1.000
    5240 POLY   1 POL  CG    CG    0.000  1.000
    5241 POLY   1 POL  CG    CG    0.000  1.000
    5242 POLY   1 POL  CG    CG    0.000  1.000
    5243 POLY   1 POL  CG    CG    0.000  1.000
    5244 POLY   1 POL  CG    CG    0.000  1.000
    5245 POLY   1 POL  CG    CG    0.000  1.000
    5246 POLY   1 POL  CG    CG    0.000  1.000
    5247 POLY   1 POL  CG    CG    0.000  1.000
    5248 POLY   1 POL  CG    CG    0.000  1.000
    5249 POLY   1 POL  CG    CG    0.000  1.000
    5250 POLY   1 POL  CG    CG    0.000  1.000
    5251 POLY   1 POL  CG    CG    0.000  1.000
    5252 POLY   1 POL  CG    CG    0.000  1.000
    5253 POLY   1 POL  CG    CG    0.000  1.000
    5254 POLY   1 POL  CG    CG    0.000  1.000
    5255 POLY   1 POL  CG    CG    0.000  1.000
    5256 POLY   1 POL  CG    CG    0.000  1.000
    5257 POLY   1 POL  CG    CG    0.000  1.000
    5258 POLY   1 POL  CG    CG    0.000  1.000
    5259 POLY   1 POL  CG    CG    0.000  1.000
    5260 POLY   1 POL  CG    CG    0.000  1.000
    5261 POLY   1 POL  CG    CG    0.000  1.000
    5262 POLY   1 POL  CG    CG    0.000  1.000
    5263 POLY   1 POL  CG    CG    0.000  1.000
    5264 POLY   1 POL  CG    CG    0.000  1.000
    5265 POLY   1 POL  CG    CG    0.000  1.000
    5266 POLY   1 POL  CG    CG    0.000  1.000
    5267 POLY   1 POL  CG    CG    0.000  1.000
    5268 POLY   1 POL  CG    CG    0.000  1.000
    5269 POLY   1 POL  CG    CG    0.000  1.000
    5270 POLY   1 POL  CG    CG    0.000  1.000
    5271 POLY   1 POL  CG    CG    0.000  1.000
    5272 POLY   1 POL  CG    CG    0.000  1.000
    5273 POLY   1 POL  CG    CG    0.000  1.000
    5274 POLY   1 POL  CG    CG    0.000  1.000
    5275 POLY   1 POL  CG    CG    0.000  1.000
    5276 POLY   1 POL  CG    CG    0.000  1.000
    5277 POLY   1 POL  CG    CG    0.000  1.000
    5278 POLY   1 POL  CG    CG    0.000  1.000
    5279 POLY   1 POL  CG    CG    0.000  1.000
    5280 POLY   1 POL  CG    CG    0.000  1.000
    5281 POLY   1 POL  CG    CG    0.000  1.000
    5282 POLY   1 POL  CG    CG    0.000  1.000
    5283 POLY   1 POL  CG    CG    0.000  1.000
    5284 POLY   1 POL  CG    CG    0.000  1.000
    5285 POLY   1 POL  CG    CG    0.000  1.000
    5286 POLY   1 POL  CG    CG    0.000  1.000
    5287 POLY   1 POL  CG    CG    0.000  1.000
    5288 POLY   1 POL  CG    CG    0.000  1.000
    5289 POLY   1 POL  CG    CG    0.000  1.000
    5290 POLY   1 POL  CG    CG    0.000  1.000
    5291 POLY   1 POL  CG    CG    0.000  1.000
    5292 POLY   1 POL  CG    CG    0.000  1.000
    5293 POLY   1 POL  CG    CG    0.000  1.000
    5294 POLY   1 POL  CG    CG    0.000  1.000
    5295 POLY   1 POL  CG    CG    0.000  1.000
    5296 POLY   1 POL  CG    CG    0.000  1.000
    5297 POLY   1 POL  CG    CG    0.000  1.000
    5298 POLY   1 POL  CG    CG    0.000  1.000
    5299 POLY   1 POL  CG    CG    0.000  1.000
    5300 POLY   1 POL  CG    CG    0.000  1.000
    5301 POLY   1 POL  CG    CG    0.000  1.000
    5302 POLY   1 POL  CG    CG    0.000  1.000
    5303 POLY   1 POL  CG    CG    0.000  1.000
    5304 POLY   1 POL  CG    CG    0.000  1.000
    5305 POLY   1 POL  CG    CG    0.000  1.000
    5306 POLY   1 POL  CG    CG    0.000  1.000
    5307 POLY   1 POL  CG    CG    0.000  1.000
    5308 POLY   1 POL  CG    CG    0.000  1.000
    5309 POLY   1 POL  CG    CG    0.000  1.000
    5310 POLY   1 POL  CG    CG    0.000  1.000
    5311 POLY   1 POL  CG    CG    0.000  1.000
    5312 POLY   1 POL  CG    CG    0.000  1.000
    5313 POLY   1 POL  CG    CG    0.000  1.000
    5314 POLY   1 POL  CG    CG    0.000  1.000
    5315 POLY   1 POL  CG    CG    0.000  1.000
    5316 POLY   1 POL  CG    CG    0.000  1.000
    5317 POLY   1 POL  CG    CG    0.000  1.000
    5318 POLY   1 POL  CG    CG    0.000  1.000
    5319 POLY   1 POL  CG    CG    0.000  1.000
    5320 POLY   1 POL  CG    CG    0.000  1.000
    5321 POLY   1 POL  CG    CG    0.000  1.000
    5322 POLY   1 POL  CG    CG    0.000  1.000
    5323 POLY   1 POL  CG    CG    0.000  1.000
    5324 POLY   1 POL  CG    CG    0.000  1.000
    5325 POLY   1 POL  CG    CG    0.000  1.000
    5326 POLY   1 POL  CG    CG    0.000  1.000
    5327 POLY   1 POL  CG    CG    0.000  1.000
    5328 POLY   1 POL  CG    CG    0.000  1.000
    5329 POLY   1 POL  CG    CG    0.000  1.000
    5330 POLY   1 POL  CG    CG    0.000  1.000
    5331 POLY   1 POL  CG    CG    0.000  1.000
    5332 POLY   1 POL  CG    CG    0.000  1.000
    5333 POLY   1 POL  CG    CG    0.000  1.000
    5334 POLY   1 POL  CG    CG    0.000  1.000
    5335 POLY   1 POL  CG    CG    0.000  1.000
    5336 POLY   1 POL  CG    CG    0.000  1.000
    5337 POLY   1 POL  CG    CG    0.000  1.000
    5338 POLY   1 POL  CG    CG    0.000  1.000
    5339 POLY   1 POL  CG    CG    0.000  1.000
    5340 POLY   1 POL  CG    CG    0.000  1.000
    5341 POLY   1 POL  CG    CG    0.000  1.000
    5342 POLY   1 POL  CG    CG    0.000  1.000
    5343 POLY   1 POL  CG    CG    0.000  1.000
    5344 POLY   1 POL  CG    CG    0.000  1.000
    5345 POLY   1 POL  CG    CG    0.000  1.000
    5346 POLY   1 POL  CG    CG    0.000  1.000
    5347 POLY   1 POL  CG    CG    0.000  1.000
    5348 POLY   1 POL  CG    CG    0.000  1.000
    5349 POLY   1 POL  CG    CG    0.000  1.000
    5350 POLY   1 POL  CG    CG    0.000  1.000
    5351 POLY   1 POL  CG    CG    0.000  1.000
    5352 POLY   1 POL  CG    CG    0.000  1.000
    5353 POLY   1 POL  CG    CG    0.000  1.000
    5354 POLY   1 POL  CG    CG    0.000  1.000
    5355 POLY   1 POL  CG    CG    0.000  1.000
    5356 POLY   1 POL  CG    CG    0.000  1.000
    5357 POLY   1 POL  CG    CG    0.000  1.000
    5358 POLY   1 POL  CG    CG    0.000  1.000
    5359 POLY   1 POL  CG    CG    0.000  1.000
    5360 POLY   1 POL  CG    CG    0.000  1.000
    5361 POLY   1 POL  CG    CG    0.000  1.000
    5362 POLY   1 POL  CG    CG    0.000  1.000
    5363 POLY   1 POL  CG    CG    0.000  1.000
    5364 POLY   1 POL  CG    CG    0.000  1.000
    5365 POLY   1 POL  CG    CG    0.000  1.000
    5366 POLY   1 POL  CG    CG    0.000  1.000
    5367 POLY   1 POL  CG    CG    0.000  1.000
    5368 POLY   1 POL  CG    CG    0.000  1.000
    5369 POLY   1 POL  CG    CG    0.000  1.000
    5370 POLY   1 POL  CG    CG    0.000  1.000
    5371 POLY   1 POL  CG    CG    0.000  1.000
    5372 POLY   1 POL  CG    CG    0.000  1.000
    5373 POLY   1 POL  CG    CG    0.000  1.000
    5374 POLY   1 POL  CG    CG    0.000  1.000
    5375 POLY   1 POL  CG    CG    0.000  1.000
    5376 POLY   1 POL  CG    CG    0.000  1.000
    5377 POLY   1 POL  CG    CG    0.000  1.000
    5378 POLY   1 POL  CG    CG    0.000  1.000
    5379 POLY   1 POL  CG    CG    0.000  1.000
    5380 POLY   1 POL  CG    CG    0.000  1.000
    5381 POLY   1 POL  CG    CG    0.000  1.000
    5382 POLY   1 POL  CG    CG    0.000  1.000
    5383 POLY   1 POL  CG    CG    0.000  1.000
    5384 POLY   1 POL  CG    CG    0.000  1.000
    5385 POLY   1 POL  CG    CG    0.000  1.000
    5386 POLY   1 POL  CG    CG    0.000  1.000
    5387 POLY   1 POL  CG    CG    0.000  1.000
    5388 POLY   1 POL  CG    CG    0.000  1.000
    5389 POLY   1 POL  CG    CG    0.000  1.000
    5390 POLY   1 POL  CG    CG    0.000  1.000
    5391 POLY   1 POL  CG    CG    0.000  1.000
    5392 POLY   1 POL  CG    CG    0.000  1.000
    5393 POLY   1 POL  CG    CG    0.000  1.000
    5394 POLY   1 POL  CG    CG    0.000  1.000
    5395 POLY   1 POL  CG    CG    0.000  1.000
    5396 POLY   1 POL  CG    CG    0.000  1.000
    5397 POLY   1 POL  CG    CG    0.000  1.000
    5398 POLY   1 POL  CG    CG    0.000  1.000
    5399 POLY   1 POL  CG    CG    0.000  1.000
    5400 POLY   1 POL  CG    CG    0.000  1.000
    5401 POLY   1 POL  CG    CG    0.000  1.000
    5402 POLY   1 POL  CG    CG    0.000  1.000
    5403 POLY   1 POL  CG    CG    0.000  1.000
    5404 POLY   1 POL  CG    CG    0.000  1.000
    5405 POLY   1 POL  CG    CG    0.000  1.000
    5406 POLY   1 POL  CG    CG    0.000  1.000
    5407 POLY   1 POL  CG    CG    0.000  1.000
    5408 POLY   1 POL  CG    CG    0.000  1.000
    5409 POLY   1 POL  CG    CG    0.000  1.000
    5410 POLY   1 POL  CG    CG    0.000  1.000
    5411 POLY   1 POL  CG    CG    0.000  1.000
    5412 POLY   1 POL  CG    CG    0.000  1.000
    5413 POLY   1 POL  CG    CG    0.000  1.000
    5414 POLY   1 POL  CG    CG    0.000  1.000
    5415 POLY   1 POL  CG    CG    0.000  1.000
    5416 POLY   1 POL  CG    CG    0.000  1.000
    5417 POLY   1 POL  CG    CG    0.000  1.000
    5418 POLY   1 POL  CG    CG    0.000  1.000
    5419 POLY   1 POL  CG    CG    0.000  1.000
    5420 POLY   1 POL  CG    CG    0.000  1.000
    5421 POLY   1 POL  CG    CG    0.000  1.000
    5422 POLY   1 POL  CG    CG    0.000  1.000
    5423 POLY   1 POL  CG    CG    0.000  1.000
    5424 POLY   1 POL  CG    CG    0.000  1.000
    5425 POLY   1 POL  CG    CG    0.000  1.000
    5426 POLY   1 POL  CG    CG    0.000  1.000
    5427 POLY   1 POL  CG    CG    0.000  1.000
    5428 POLY   1 POL  CG    CG    0.000  1.000
    5429 POLY   1 POL  CG    CG    0.000  1.000
    5430 POLY   1 POL  CG    CG    0.000  1.000
    5431 POLY   1 POL  CG    CG    0.000  1.000
    5432 POLY   1 POL  CG    CG    0.000  1.000
    5433 POLY   1 POL  CG    CG    0.000  1.000
    5434 POLY   1 POL  CG    CG    0.000  1.000
    5435 POLY   1 POL  CG    CG    0.000  1.000
    5436 POLY   1 POL  CG    CG    0.000  1.000
    5437 POLY   1 POL  CG    CG    0.000  1.000
    5438 POLY   1 POL  CG    CG    0.000  1.000
    5439 POLY   1 POL  CG    CG    0.000  1.000
    5440 POLY   1 POL  CG    CG    0.000  1.000
    5441 POLY   1 POL  CG    CG    0.000  1.000
    5442 POLY   1 POL  CG    CG    0.000  1.000
    5443 POLY   1 POL  CG    CG    0.000  1.000
    5444 POLY   1 POL  CG    CG    0.000  1.000
    5445 POLY   1 POL  CG    CG    0.000  1.000
    5446 POLY   1 POL  CG    CG    0.000  1.000
    5447 POLY   1 POL  CG    CG    0.000  1.000
    5448 POLY   1 POL  CG    CG    0.000  1.000
    5449 POLY   1 POL  CG    CG    0.000  1.000
    5450 POLY   1 POL  CG    CG    0.000  1.000
    5451 POLY   1 POL  CG    CG    0.000  1.000
    5452 POLY   1 POL  CG    CG    0.000  1.000
    5453 POLY   1 POL  CG    CG    0.000  1.000
    5454 POLY   1 POL  CG    CG    0.000  1.000
    5455 POLY   1 POL  CG    CG    0.000  1.000
    5456 POLY   1 POL  CG    CG    0.000  1.000
    5457 POLY   1 POL  CG    CG    0.000  1.000
    5458 POLY   1 POL  CG    CG    0.000  1.000
    5459 POLY   1 POL  CG    CG    0.000  1.000
    5460 POLY   1 POL  CG    CG    0.000  1.000
    5461 POLY   1 POL  CG    CG    0.000  1.000
    5462 POLY   1 POL  CG    CG    0.000  1.000
    5463 POLY   1 POL  CG    CG    0.000  1.000
    5464 POLY   1 POL  CG    CG    0.000  1.000
    5465 POLY   1 POL  CG    CG    0.000  1.000
    5466 POLY   1 POL  CG    CG    0.000  1.000
    5467 POLY   1 POL  CG    CG    0.000  1.000
    5468 POLY   1 POL  CG    CG    0.000  1.000
    5469 POLY   1 POL  CG    CG    0.000  1.000
    5470 POLY   1 POL  CG    CG    0.000  1.000
    5471 POLY   1 POL  CG    CG    0.000  1.000
    5472 POLY   1 POL  CG    CG    0.000  1.000
    5473 POLY   1 POL  CG    CG    0.000  1.000
    5474 POLY   1 POL  CG    CG    0.000  1.000
    5475 POLY   1 POL  CG    CG    0.000  1.000
    5476 POLY   1 POL  CG    CG    0.000  1.000
    5477 POLY   1 POL  CG    CG    0.000  1.000
    5478 POLY   1 POL  CG    CG    0.000  1.000
    5479 POLY   1 POL  CG    CG    0.000  1.000
    5480 POLY   1 POL  CG    CG    0.000  1.000
    5481 POLY   1 POL  CG    CG    0.000  1.000
    5482 POLY   1 POL  CG    CG    0.000  1.000
    5483 POLY   1 POL  CG    CG    0.000  1.000
    5484 POLY   1 POL  CG    CG    0.000  1.000
    5485 POLY   1 POL  CG    CG    0.000  1.000
    5486 POLY   1 POL  CG    CG    0.000  1.000
    5487 POLY   1 POL  CG    CG    0.000  1.000
    5488 POLY   1 POL  CG    CG    0.000  1.000
    5489 POLY   1 POL  CG    CG    0.000  1.000
    5490 POLY   1 POL  CG    CG    0.000  1.000
    5491 POLY   1 POL  CG    CG    0.000  1.000
    5492 POLY   1 POL  CG    CG    0.000  1.000
    5493 POLY   1 POL  CG    CG    0.000  1.000
    5494 POLY   1 POL  CG    CG    0.000  1.000
    5495 POLY   1 POL  CG    CG    0.000  1.000
    5496 POLY   1 POL  CG    CG    0.000  1.000
    5497 POLY   1 POL  CG    CG    0.000  1.000
    5498 POLY   1 POL  CG    CG    0.000  1.000
    5499 POLY   1 POL  CG    CG    0.000  1.000
    5500 POLY   1 POL  CG    CG    0.000  1.000
    5501 POLY   1 POL  CG    CG    0.000  1.000
    5502 POLY   1 POL  CG    CG    0.000  1.000
    5503 POLY   1 POL  CG    CG    0.000  1.000
    5504 POLY   1 POL  CG    CG    0.000  1.000
    5505 POLY   1 POL  CG    CG    0.000  1.000
    5506 POLY   1 POL  CG    CG    0.000  1.000
    5507 POLY   1 POL  CG    CG    0.000  1.000
    5508 POLY   1 POL  CG    CG    0.000  1.000
    5509 POLY   1 POL  CG    CG    0.000  1.000
    5510 POLY   1 POL  CG    CG    0.000  1.000
    5511 POLY   1 POL  CG    CG    0.000  1.000
    5512 POLY   1 POL  CG    CG    0.000  1.000
    5513 POLY   1 POL  CG    CG    0.000  1.000
    5514 POLY   1 POL  CG    CG    0.000  1.000
    5515 POLY   1 POL  CG    CG    0.000  1.000
    5516 POLY   1 POL  CG    CG    0.000  1.000
    5517 POLY   1 POL  CG    CG    0.000  1.000
    5518 POLY   1 POL  CG    CG    0.000  1.000
    5519 POLY   1 POL  CG    CG    0.000  1.000
    5520 POLY   1 POL  CG    CG    0.000  1.000
    5521 POLY   1 POL  CG    CG    0.000  1.000
    5522 POLY   1 POL  CG    CG    0.000  1.000
    5523 POLY   1 POL  CG    CG    0.000  1.000
    5524 POLY   1 POL  CG    CG    0.000  1.000
    5525 POLY   1 POL  CG    CG    0.000  1.000
    5526 POLY   1 POL  CG    CG    0.000  1.000
    5527 POLY   1 POL  CG    CG    0.000  1.000
    5528 POLY   1 POL  CG    CG    0.000  1.000
    5529 POLY   1 POL  CG    CG    0.000  1.000
    5530 POLY   1 POL  CG    CG    0.000  1.000
    5531 POLY   1 POL  CG    CG    0.000  1.000
    5532 POLY   1 POL  CG    CG    0.000  1.000
    5533 POLY   1 POL  CG    CG    0.000  1.000
    5534 POLY   1 POL  CG    CG    0.000  1.000
    5535 POLY   1 POL  CG    CG    0.000  1.000
    5536 POLY   1 POL  CG    CG    0.000  1.000
    5537 POLY   1 POL  CG    CG    0.000  1.000
    5538 POLY   1 POL  CG    CG    0.000  1.000
    5539 POLY   1 POL  CG    CG    0.000  1.000
    5540 POLY   1 POL  CG    CG    0.000  1.000
    5541 POLY   1 POL  CG    CG    0.000  1.000
    5542 POLY   1 POL  CG    CG    0.000  1.000
    5543 POLY   1 POL  CG    CG    0.000  1.000
    5544 POLY   1 POL  CG    CG    0.000  1.000
    5545 POLY   1 POL  CG    CG    0.000  1.000
    5546 POLY   1 POL  CG    CG    0.000  1.000
    5547 POLY   1 POL  CG    CG    0.000  1.000
    5548 POLY   1 POL  CG    CG    0.000  1.000
    5549 POLY   1 POL  CG    CG    0.000  1.000
    5550 POLY   1 POL  CG    CG    0.000  1.000
    5551 POLY   1 POL  CG    CG    0.000  1.000
    5552 POLY   1 POL  CG    CG    0.000  1.000
    5553 POLY   1 POL  CG    CG    0.000  1.000
    5554 POLY   1 POL  CG    CG    0.000  1.000
    5555 POLY   1 POL  CG    CG    0.000  1.000
    5556 POLY   1 POL  CG    CG    0.000  1.000
    5557 POLY   1 POL  CG    CG    0.000  1.000
    5558 POLY   1 POL  CG    CG    0.000  1.000
    5559 POLY   1 POL  CG    CG    0.000  1.000
    5560 POLY   1 POL  CG    CG    0.000  1.000
    5561 POLY   1 POL  CG    CG    0.000  1.000
    5562 POLY   1 POL  CG    CG    0.000  1.000
    5563 POLY   1 POL  CG    CG    0.000  1.000
    5564 POLY   1 POL  CG    CG    0.000  1.000
    5565 POLY   1 POL  CG    CG    0.000  1.000
    5566 POLY   1 POL  CG    CG    0.000  1.000
    5567 POLY   1 POL  CG    CG    0.000  1.000
    5568 POLY   1 POL  CG    CG    0.000  1.000
    5569 POLY   1 POL  CG    CG    0.000  1.000
    5570 POLY   1 POL  CG    CG    0.000  1.000
    5571 POLY   1 POL  CG    CG    0.000  1.000
    5572 POLY   1 POL  CG    CG    0.000  1.000
    5573 POLY   1 POL  CG    CG    0.000  1.000
    5574 POLY   1 POL  CG    CG    0.000  1.000
    5575 POLY   1 POL  CG    CG    0.000  1.000
    5576 POLY   1 POL  CG    CG    0.000  1.000
    5577 POLY   1 POL  CG    CG    0.000  1.000
    5578 POLY   1 POL  CG    CG    0.000  1.000
    5579 POLY   1 POL  CG    CG    0.000  1.000
    5580 POLY   1 POL  CG    CG    0.000  1.000
    5581 POLY   1 POL  CG    CG    0.000  1.000
    5582 POLY   1 POL  CG    CG    0.000  1.000
    5583 POLY   1 POL  CG    CG    0.000  1.000
    5584 POLY   1 POL  CG    CG    0.000  1.000
    5585 POLY   1 POL  CG    CG    0.000  1.000
    5586 POLY   1 POL  CG    CG    0.000  1.000
    5587 POLY   1 POL  CG    CG    0.000  1.000
    5588 POLY   1 POL  CG    CG    0.000  1.000
    5589 POLY   1 POL  CG    CG    0.000  1.000
    5590 POLY   1 POL  CG    CG    0.000  1.000
    5591 POLY   1 POL  CG    CG    0.000  1.000
    5592 POLY   1 POL  CG    CG    0.000  1.000
    5593 POLY   1 POL  CG    CG    0.000  1.000
    5594 POLY   1 POL  CG    CG    0.000  1.000
    5595 POLY   1 POL  CG    CG    0.000  1.000
    5596 POLY   1 POL  CG    CG    0.000  1.000
    5597 POLY   1 POL  CG    CG    0.000  1.000
    5598 POLY   1 POL  CG    CG    0.000  1.000
    5599 POLY   1 POL  CG    CG    0.000  1.000
    5600 POLY   1 POL  CG    CG    0.000  1.000
    5601 POLY   1 POL  CG    CG    0.000  1.000
    5602 POLY   1 POL  CG    CG    0.000  1.000
    5603 POLY   1 POL  CG    CG    0.000  1.000
    5604 POLY   1 POL  CG    CG    0.000  1.000
    5605 POLY   1 POL  CG    CG    0.000  1.000
    5606 POLY   1 POL  CG    CG    0.000  1.000
    5607 POLY   1 POL  CG    CG    0.000  1.000
    5608 POLY   1 POL  CG    CG    0.000  1.000
    5609 POLY   1 POL  CG    CG    0.000  1.000
    5610 POLY   1 POL  CG    CG    0.000  1.000
    5611 POLY   1 POL  CG    CG    0.000  1.000
    5612 POLY   1 POL  CG    CG    0.000  1.000
    5613 POLY   1 POL  CG    CG    0.000  1.000
    5614 POLY   1 POL  CG    CG    0.000  1.000
    5615 POLY   1 POL  CG    CG    0.000  1.000
    5616 POLY   1 POL  CG    CG    0.000  1.000
    5617 POLY   1 POL  CG    CG    0.000  1.000
    5618 POLY   1 POL  CG    CG    0.000  1.000
    5619 POLY   1 POL  CG    CG    0.000  1.000
    5620 POLY   1 POL  CG    CG    0.000  1.000
    5621 POLY   1 POL  CG    CG    0.000  1.000
    5622 POLY   1 POL  CG    CG    0.000  1.000
    5623 POLY   1 POL  CG    CG    0.000  1.000
    5624 POLY   1 POL  CG    CG    0.000  1.000
    5625 POLY   1 POL  CG    CG    0.000  1.000
    5626 POLY   1 POL  CG    CG    0.000  1.000
    5627 POLY   1 POL  CG    CG    0.000  1.000
    5628 POLY   1 POL  CG    CG    0.000  1.000
    5629 POLY   1 POL  CG    CG    0.000  1.000
    5630 POLY   1 POL  CG    CG    0.000  1.000
    5631 POLY   1 POL  CG    CG    0.000  1.000
    5632 POLY   1 POL  CG    CG    0.000  1.000
    5633 POLY   1 POL  CG    CG    0.000  1.000
    5634 POLY   1 POL  CG    CG    0.000  1.000
    5635 POLY   1 POL  CG    CG    0.000  1.000
    5636 POLY   1 POL  CG    CG    0.000  1.000
    5637 POLY   1 POL  CG    CG    0.000  1.000
    5638 POLY   1 POL  CG    CG    0.000  1.000
    5639 POLY   1 POL  CG    CG    0.000  1.000
    5640 POLY   1 POL  CG    CG    0.000  1.000
    5641 POLY   1 POL  CG    CG    0.000  1.000
    5642 POLY   1 POL  CG    CG    0.000  1.000
    5643 POLY   1 POL  CG    CG    0.000  1.000
    5644 POLY   1 POL  CG    CG    0.000  1.000
    5645 POLY   1 POL  CG    CG    0.000  1.000
    5646 POLY   1 POL  CG    CG    0.000  1.000
    5647 POLY   1 POL  CG    CG    0.000  1.000
    5648 POLY   1 POL  CG    CG    0.000  1.000
    5649 POLY   1 POL  CG    CG    0.000  1.000
    5650 POLY   1 POL  CG    CG    0.000  1.000
    5651 POLY   1 POL  CG    CG    0.000  1.000
    5652 POLY   1 POL  CG    CG    0.000  1.000
    5653 POLY   1 POL  CG    CG    0.000  1.000
    5654 POLY   1 POL  CG    CG    0.000  1.000
    5655 POLY   1 POL  CG    CG    0.000  1.000
    5656 POLY   1 POL  CG    CG    0.000  1.000
    5657 POLY   1 POL  CG    CG    0.000  1.000
    5658 POLY   1 POL  CG    CG    0.000  1.000
    5659 POLY   1 POL  CG    CG    0.000  1.000
    5660 POLY   1 POL  CG    CG    0.000  1.000
    5661 POLY   1 POL  CG    CG    0.000  1.000
    5662 POLY   1 POL  CG    CG    0.000  1.000
    5663 POLY   1 POL  CG    CG    0.000  1.000
    5664 POLY   1 POL  CG    CG    0.000  1.000
    5665 POLY   1 POL  CG    CG    0.000  1.000
    5666 POLY   1 POL  CG    CG    0.000  1.000
    5667 POLY   1 POL  CG    CG    0.000  1.000
    5668 POLY   1 POL  CG    CG    0.000  1.000
    5669 POLY   1 POL  CG    CG    0.000  1.000
    5670 POLY   1 POL  CG    CG    0.000  1.000
    5671 POLY   1 POL  CG    CG    0.000  1.000
    5672 POLY   1 POL  CG    CG    0.000  1.000
    5673 POLY   1 POL  CG    CG    0.000  1.000
    5674 POLY   1 POL  CG    CG    0.000  1.000
    5675 POLY   1 POL  CG    CG    0.000  1.000
    5676 POLY   1 POL  CG    CG    0.000  1.000
    5677 POLY   1 POL  CG    CG    0.000  1.000
    5678 POLY   1 POL  CG    CG    0.000  1.000
    5679 POLY   1 POL  CG    CG    0.000  1.000
    5680 POLY   1 POL  CG    CG    0.000  1.000
    5681 POLY   1 POL  CG    CG    0.000  1.000
    5682 POLY   1 POL  CG    CG    0.000  1.000
    5683 POLY   1 POL  CG    CG    0.000  1.000
    5684 POLY   1 POL  CG    CG    0.000  1.000
    5685 POLY   1 POL  CG    CG    0.000  1.000
    5686 POLY   1 POL  CG    CG    0.000  1.000
    5687 POLY   1 POL  CG    CG    0.000  1.000
    5688 POLY   1 POL  CG    CG    0.000  1.000
    5689 POLY   1 POL  CG    CG    0.000  1.000
    5690 POLY   1 POL  CG    CG    0.000  1.000
    5691 POLY   1 POL  CG    CG    0.000  1.000
    5692 POLY   1 POL  CG    CG    0.000  1.000
    5693 POLY   1 POL  CG    CG    0.000  1.000
    5694 POLY   1 POL  CG    CG    0.000  1.000
    5695 POLY   1 POL  CG    CG    0.000  1.000
    5696 POLY   1 POL  CG    CG    0.000  1.000
    5697 POLY   1 POL  CG    CG    0.000  1.000
    5698 POLY   1 POL  CG    CG    0.000  1.000
    5699 POLY   1 POL  CG    CG    0.000  1.000
    5700 POLY   1 POL  CG    CG    0.000  1.000
    5701 POLY   1 POL  CG    CG    0.000  1.000
    5702 POLY   1 POL  CG    CG    0.000  1.000
    5703 POLY   1 POL  CG    CG    0.000  1.000
    5704 POLY   1 POL  CG    CG    0.000  1.000
    5705 POLY   1 POL  CG    CG    0.000  1.000
    5706 POLY   1 POL  CG    CG    0.000  1.000
    5707 POLY   1 POL  CG    CG    0.000  1.000
    5708 POLY   1 POL  CG    CG    0.000  1.000
    5709 POLY   1 POL  CG    CG    0.000  1.000
    5710 POLY   1 POL  CG    CG    0.000  1.000
    5711 POLY   1 POL  CG    CG    0.000  1.000
    5712 POLY   1 POL  CG    CG    0.000  1.000
    5713 POLY   1 POL  CG    CG    0.000  1.000
    5714 POLY   1 POL  CG    CG    0.000  1.000
    5715 POLY   1 POL  CG    CG    0.000  1.000
    5716 POLY   1 POL  CG    CG    0.000  1.000
    5717 POLY   1 POL  CG    CG    0.000  1.000
    5718 POLY   1 POL  CG    CG    0.000  1.000
    5719 POLY   1 POL  CG    CG    0.000  1.000
    5720 POLY   1 POL  CG    CG    0.000  1.000
    5721 POLY   1 POL  CG    CG    0.000  1.000
    5722 POLY   1 POL  CG    CG    0.000  1.000
    5723 POLY   1 POL  CG    CG    0.000  1.000
    5724 POLY   1 POL  CG    CG    0.000  1.000
    5725 POLY   1 POL  CG    CG    0.000  1.000
    5726 POLY   1 POL  CG    CG    0.000  1.000
    5727 POLY   1 POL  CG    CG    0.000  1.000
    5728 POLY   1 POL  CG    CG    0.000  1.000
    5729 POLY   1 POL  CG    CG    0.000  1.000
    5730 POLY   1 POL  CG    CG    0.000  1.000
    5731 POLY   1 POL  CG    CG    0.000  1.000
    5732 POLY   1 POL  CG    CG    0.000  1.000
    5733 POLY   1 POL  CG    CG    0.000  1.000
    5734 POLY   1 POL  CG    CG    0.000  1.000
    5735 POLY   1 POL  CG    CG    0.000  1.000
    5736 POLY   1 POL  CG    CG    0.000  1.000
    5737 POLY   1 POL  CG    CG    0.000  1.000
    5738 POLY   1 POL  CG    CG    0.000  1.000
    5739 POLY   1 POL  CG    CG    0.000  1.000
    5740 POLY   1 POL  CG    CG    0.000  1.000
    5741 POLY   1 POL  CG    CG    0.000  1.000
    5742 POLY   1 POL  CG    CG    0.000  1.000
    5743 POLY   1 POL  CG    CG    0.000  1.000
    5744 POLY   1 POL  CG    CG    0.000  1.000
    5745 POLY   1 POL  CG    CG    0.000  1.000
    5746 POLY   1 POL  CG    CG    0.000  1.000
    5747 POLY   1 POL  CG    CG    0.000  1.000
    5748 POLY   1 POL  CG    CG    0.000  1.000
    5749 POLY   1 POL  CG    CG    0.000  1.000
    5750 POLY   1 POL  CG    CG    0.000  1.000
    5751 POLY   1 POL  CG    CG    0.000  1.000
    5752 POLY   1 POL  CG    CG    0.000  1.000
    5753 POLY   1 POL  CG    CG    0.000  1.000
    5754 POLY   1 POL  CG    CG    0.000  1.000
    5755 POLY   1 POL  CG    CG    0.000  1.000
    5756 POLY   1 POL  CG    CG    0.000  1.000
    5757 POLY   1 POL  CG    CG    0.000  1.000
    5758 POLY   1 POL  CG    CG    0.000  1.000
    5759 POLY   1 POL  CG    CG    0.000  1.000
    5760 POLY   1 POL  CG    CG    0.000  1.000
    5761 POLY   1 POL  CG    CG    0.000  1.000
    5762 POLY   1 POL  CG    CG    0.000  1.000
    5763 POLY   1 POL  CG    CG    0.000  1.000
    5764 POLY   1 POL  CG    CG    0.000  1.000
    5765 POLY   1 POL  CG    CG    0.000  1.000
    5766 POLY   1 POL  CG    CG    0.000  1.000
    5767 POLY   1 POL  CG    CG    0.000  1.000
    5768 POLY   1 POL  CG    CG    0.000  1.000
    5769 POLY   1 POL  CG    CG    0.000  1.000
    5770 POLY   1 POL  CG    CG    0.000  1.000
    5771 POLY   1 POL  CG    CG    0.000  1.000
    5772 POLY   1 POL  CG    CG    0.000  1.000
    5773 POLY   1 POL  CG    CG    0.000  1.000
    5774 POLY   1 POL  CG    CG    0.000  1.000
    5775 POLY   1 POL  CG    CG    0.000  1.000
    5776 POLY   1 POL  CG    CG    0.000  1.000
    5777 POLY   1 POL  CG    CG    0.000  1.000
    5778 POLY   1 POL  CG    CG    0.000  1.000
    5779 POLY   1 POL  CG    CG    0.000  1.000
    5780 POLY   1 POL  CG    CG    0.000  1.000
    5781 POLY   1 POL  CG    CG    0.000  1.000
    5782 POLY   1 POL  CG    CG    0.000  1.000
    5783 POLY   1 POL  CG    CG    0.000  1.000
    5784 POLY   1 POL  CG    CG    0.000  1.000
    5785 POLY   1 POL  CG    CG    0.000  1.000
    5786 POLY   1 POL  CG    CG    0.000  1.000
    5787 POLY   1 POL  CG    CG    0.000  1.000
    5788 POLY   1 POL  CG    CG    0.000  1.000
    5789 POLY   1 POL  CG    CG    0.000  1.000
    5790 POLY   1 POL  CG    CG    0.000  1.000
    5791 POLY   1 POL  CG    CG    0.000  1.000
    5792 POLY   1 POL  CG    CG    0.000  1.000
    5793 POLY   1 POL  CG    CG    0.000  1.000
    5794 POLY   1 POL  CG    CG    0.000  1.000
    5795 POLY   1 POL  CG    CG    0.000  1.000
    5796 POLY   1 POL  CG    CG    0.000  1.000
    5797 POLY   1 POL  CG    CG    0.000  1.000
    5798 POLY   1 POL  CG    CG    0.000  1.000
    5799 POLY   1 POL  CG    CG    0.000  1.000
    5800 POLY   1 POL  CG    CG    0.000  1.000
    5801 POLY   1 POL  CG    CG    0.000  1.000
    5802 POLY   1 POL  CG    CG    0.000  1.000
    5803 POLY   1 POL  CG    CG    0.000  1.000
    5804 POLY   1 POL  CG    CG    0.000  1.000
    5805 POLY   1 POL  CG    CG    0.000  1.000
    5806 POLY   1 POL  CG    CG    0.000  1.000
    5807 POLY   1 POL  CG    CG    0.000  1.000
    5808 POLY   1 POL  CG    CG    0.000  1.000
    5809 POLY   1 POL  CG    CG    0.000  1.000
    5810 POLY   1 POL  CG    CG    0.000  1.000
    5811 POLY   1 POL  CG    CG    0.000  1.000
    5812 POLY   1 POL  CG    CG    0.000  1.000
    5813 POLY   1 POL  CG    CG    0.000  1.000
    5814 POLY   1 POL  CG    CG    0.000  1.000
    5815 POLY   1 POL  CG    CG    0.000  1.000
    5816 POLY   1 POL  CG    CG    0.000  1.000
    5817 POLY   1 POL  CG    CG    0.000  1.000
    5818 POLY   1 POL  CG    CG    0.000  1.000
    5819 POLY   1 POL  CG    CG    0.000  1.000
    5820 POLY   1 POL  CG    CG    0.000  1.000
    5821 POLY   1 POL  CG    CG    0.000  1.000
    5822 POLY   1 POL  CG    CG    0.000  1.000
    5823 POLY   1 POL  CG    CG    0.000  1.000
    5824 POLY   1 POL  CG    CG    0.000  1.000
    5825 POLY   1 POL  CG    CG    0.000  1.000
    5826 POLY   1 POL  CG    CG    0.000  1.000
    5827 POLY   1 POL  CG    CG    0.000  1.000
    5828 POLY   1 POL  CG    CG    0.000  1.000
    5829 POLY   1 POL  CG    CG    0.000  1.000
    5830 POLY   1 POL  CG    CG    0.000  1.000
    5831 POLY   1 POL  CG    CG    0.000  1.000
    5832 POLY   1 POL  CG    CG    0.000  1.000
    5833 POLY   1 POL  CG    CG    0.000  1.000
    5834 POLY   1 POL  CG    CG    0.000  1.000
    5835 POLY   1 POL  CG    CG    0.000  1.000
    5836 POLY   1 POL  CG    CG    0.000  1.000
    5837 POLY   1 POL  CG    CG    0.000  1.000
    5838 POLY   1 POL  CG    CG    0.000  1.000
    5839 POLY   1 POL  CG    CG    0.000  1.000
    5840 POLY   1 POL  CG    CG    0.000  1.000
    5841 POLY   1 POL  CG    CG    0.000  1.000
    5842 POLY   1 POL  CG    CG    0.000  1.000
    5843 POLY   1 POL  CG    CG    0.000  1.000
    5844 POLY   1 POL  CG    CG    0.000  1.000
    5845 POLY   1 POL  CG    CG    0.000  1.000
    5846 POLY   1 POL  CG    CG    0.000  1.000
    5847 POLY   1 POL  CG    CG    0.000  1.000
    5848 POLY   1 POL  CG    CG    0.000  1.000
    5849 POLY   1 POL  CG    CG    0.000  1.000
    5850 POLY   1 POL  CG    CG    0.000  1.000
    5851 POLY   1 POL  CG    CG    0.000  1.000
    5852 POLY   1 POL  CG    CG    0.000  1.000
    5853 POLY   1 POL  CG    CG    0.000  1.000
    5854 POLY   1 POL  CG    CG    0.000  1.000
    5855 POLY   1 POL  CG    CG    0.000  1.000
    5856 POLY   1 POL  CG    CG    0.000  1.000
    5857 POLY   1 POL  CG    CG    0.000  1.000
    5858 POLY   1 POL  CG    CG    0.000  1.000
    5859 POLY   1 POL  CG    CG    0.000  1.000
    5860 POLY   1 POL  CG    CG    0.000  1.000
    5861 POLY   1 POL  CG    CG    0.000  1.000
    5862 POLY   1 POL  CG    CG    0.000  1.000
    5863 POLY   1 POL  CG    CG    0.000  1.000
    5864 POLY   1 POL  CG    CG    0.000  1.000
    5865 POLY   1 POL  CG    CG    0.000  1.000
    5866 POLY   1 POL  CG    CG    0.000  1.000
    5867 POLY   1 POL  CG    CG    0.000  1.000
    5868 POLY   1 POL  CG    CG    0.000  1.000
    5869 POLY   1 POL  CG    CG    0.000  1.000
    5870 POLY   1 POL  CG    CG    0.000  1.000
    5871 POLY   1 POL  CG    CG    0.000  1.000
    5872 POLY   1 POL  CG    CG    0.000  1.000
    5873 POLY   1 POL  CG    CG    0.000  1.000
    5874 POLY   1 POL  CG    CG    0.000  1.000
    5875 POLY   1 POL  CG    CG    0.000  1.000
    5876 POLY   1 POL  CG    CG    0.000  1.000
    5877 POLY   1 POL  CG    CG    0.000  1.000
    5878 POLY   1 POL  CG    CG    0.000  1.000
    5879 POLY   1 POL  CG    CG    0.000  1.000
    5880 POLY   1 POL  CG    CG    0.000  1.000
    5881 POLY   1 POL  CG    CG    0.000  1.000
    5882 POLY   1 POL  CG    CG    0.000  1.000
    5883 POLY   1 POL  CG    CG    0.000  1.000
    5884 POLY   1 POL  CG    CG    0.000  1.000
    5885 POLY   1 POL  CG    CG    0.000  1.000
    5886 POLY   1 POL  CG    CG    0.000  1.000
    5887 POLY   1 POL  CG    CG    0.000  1.000
    5888 POLY   1 POL  CG    CG    0.000  1.000
    5889 POLY   1 POL  CG    CG    0.000  1.000
    5890 POLY   1 POL  CG    CG    0.000  1.000
    5891 POLY   1 POL  CG    CG    0.000  1.000
    5892 POLY   1 POL  CG    CG    0.000  1.000
    5893 POLY   1 POL  CG    CG    0.000  1.000
    5894 POLY   1 POL  CG    CG    0.000  1.000
    5895 POLY   1 POL  CG    CG    0.000  1.000
    5896 POLY   1 POL  CG    CG    0.000  1.000
    5897 POLY   1 POL  CG    CG    0.000  1.000
    5898 POLY   1 POL  CG    CG    0.000  1.000
    5899 POLY   1 POL  CG    CG    0.000  1.000
    5900 POLY   1 POL  CG    CG    0.000  1.000
    5901 POLY   1 POL  CG    CG    0.000  1.000
    5902 POLY   1 POL  CG    CG    0.000  1.000
    5903 POLY   1 POL  CG    CG    0.000  1.000
    5904 POLY   1 POL  CG    CG    0.000  1.000
    5905 POLY   1 POL  CG    CG    0.000  1.000
    5906 POLY   1 POL  CG    CG    0.000  1.000
    5907 POLY   1 POL  CG    CG    0.000  1.000
    5908 POLY   1 POL  CG    CG    0.000  1.000
    5909 POLY   1 POL  CG    CG    0.000  1.000
    5910 POLY   1 POL  CG    CG    0.000  1.000
    5911 POLY   1 POL  CG    CG    0.000  1.000
    5912 POLY   1 POL  CG    CG    0.000  1.000
    5913 POLY   1 POL  CG    CG    0.000  1.000
    5914 POLY   1 POL  CG    CG    0.000  1.000
    5915 POLY   1 POL  CG    CG    0.000  1.000
    5916 POLY   1 POL  CG    CG    0.000  1.000
    5917 POLY   1 POL  CG    CG    0.000  1.000
    5918 POLY   1 POL  CG    CG    0.000  1.000
    5919 POLY   1 POL  CG    CG    0.000  1.000
    5920 POLY   1 POL  CG    CG    0.000  1.000
    5921 POLY   1 POL  CG    CG    0.000  1.000
    5922 POLY   1 POL  CG    CG    0.000  1.000
    5923 POLY   1 POL  CG    CG    0.000  1.000
    5924 POLY   1 POL  CG    CG    0.000  1.000
    5925 POLY   1 POL  CG    CG    0.000  1.000
    5926 POLY   1 POL  CG    CG    0.000  1.000
    5927 POLY   1 POL  CG    CG    0.000  1.000
    5928 POLY   1 POL  CG    CG    0.000  1.000
    5929 POLY   1 POL  CG    CG    0.000  1.000
    5930 POLY   1 POL  CG    CG    0.000  1.000
    5931 POLY   1 POL  CG    CG    0.000  1.000
    5932 POLY   1 POL  CG    CG    0.000  1.000
    5933 POLY   1 POL  CG    CG    0.000  1.000
    5934 POLY   1 POL  CG    CG    0.000  1.000
    5935 POLY   1 POL  CG    CG    0.000  1.000
    5936 POLY   1 POL  CG    CG    0.000  1.000
    5937 POLY   1 POL  CG    CG    0.000  1.000
    5938 POLY   1 POL  CG    CG    0.000  1.000
    5939 POLY   1 POL  CG    CG    0.000  1.000
    5940 POLY   1 POL  CG    CG    0.000  1.000
    5941 POLY   1 POL  CG    CG    0.000  1.000
    5942 POLY   1 POL  CG    CG    0.000  1.000
    5943 POLY   1 POL  CG    CG    0.000  1.000
    5944 POLY   1 POL  CG    CG    0.000  1.000
    5945 POLY   1 POL  CG    CG    0.000  1.000
    5946 POLY   1 POL  CG    CG    0.000  1.000
    5947 POLY   1 POL  CG    CG    0.000  1.000
    5948 POLY   1 POL  CG    CG    0.000  1.000
    5949 POLY   1 POL  CG    CG    0.000  1.000
    5950 POLY   1 POL  CG    CG    0.000  1.000
    5951 POLY   1 POL  CG    CG    0.000  1.000
    5952 POLY   1 POL  CG    CG    0.000  1.000
    5953 POLY   1 POL  CG    CG    0.000  1.000
    5954 POLY   1 POL  CG    CG    0.000  1.000
    5955 POLY   1 POL  CG    CG    0.000  1.000
    5956 POLY   1 POL  CG    CG    0.000  1.000
    5957 POLY   1 POL  CG    CG    0.000  1.000
    5958 POLY   1 POL  CG    CG    0.000  1.000
    5959 POLY   1 POL  CG    CG    0.000  1.000
    5960 POLY   1 POL  CG    CG    0.000  1.000
    5961 POLY   1 POL  CG    CG    0.000  1.000
    5962 POLY   1 POL  CG    CG    0.000  1.000
    5963 POLY   1 POL  CG    CG    0.000  1.000
    5964 POLY   1 POL  CG    CG    0.000  1.000
    5965 POLY   1 POL  CG    CG    0.000  1.000
    5966 POLY   1 POL  CG    CG    0.000  1.000
    5967 POLY   1 POL  CG    CG    0.000  1.000
    5968 POLY   1 POL  CG    CG    0.000  1.000
    5969 POLY   1 POL  CG    CG    0.000  1.000
    5970 POLY   1 POL  CG    CG    0.000  1.000
    5971 POLY   1 POL  CG    CG    0.000  1.000
    5972 POLY   1 POL  CG    CG    0.000  1.000
    5973 POLY   1 POL  CG    CG    0.000  1.000
    5974 POLY   1 POL  CG    CG    0.000  1.000
    5975 POLY   1 POL  CG    CG    0.000  1.000
    5976 POLY   1 POL  CG    CG    0.000  1.000
    5977 POLY   1 POL  CG    CG    0.000  1.000
    5978 POLY   1 POL  CG    CG    0.000  1.000
    5979 POLY   1 POL  CG    CG    0.000  1.000
    5980 POLY   1 POL  CG    CG    0.000  1.000
    5981 POLY   1 POL  CG    CG    0.000  1.000
    5982 POLY   1 POL  CG    CG    0.000  1.000
    5983 POLY   1 POL  CG    CG    0.000  1.000
    5984 POLY   1 POL  CG    CG    0.000  1.000
    5985 POLY   1 POL  CG    CG    0.000  1.000
    5986 POLY   1 POL  CG    CG    0.000  1.000
    5987 POLY   1 POL  CG    CG    0.000  1.000
    5988 POLY   1 POL  CG    CG    0.000  1.000
    5989 POLY   1 POL  CG    CG    0.000  1.000
    5990 POLY   1 POL  CG    CG    0.000  1.000
    5991 POLY   1 POL  CG    CG    0.000  1.000
    5992 POLY   1 POL  CG    CG    0.000  1.000
    5993 POLY   1 POL  CG    CG    0.000  1.000
    5994 POLY   1 POL  CG    CG    0.000  1.000
    5995 POLY   1 POL  CG    CG    0.000  1.000
    5996 POLY   1 POL  CG    CG    0.000  1.000
    5997 POLY   1 POL  CG    CG    0.000  1.000
    5998 POLY   1 POL  CG    CG    0.000  1.000
    5999 POLY   1 POL  CG    CG    0.000  1.000
    6000 POLY   1 POL  CG    CG    0.000  1.000
    6001 POLY   1 POL  CG    CG    0.000  1.000
    6002 POLY   1 POL  CG    CG    0.000  1.000
    6003 POLY   1 POL  CG    CG    0.000  1.000
    6004 POLY   1 POL  CG    CG    0.000  1.000
    6005 POLY   1 POL  CG    CG    0.000  1.000
    6006 POLY   1 POL  CG    CG    0.000  1.000
    6007 POLY   1 POL  CG    CG    0.000  1.000
    6008 POLY   1 POL  CG    CG    0.000  1.000
    6009 POLY   1 POL  CG    CG    0.000  1.000
    6010 POLY   1 POL  CG    CG    0.000  1.000
    6011 POLY   1 POL  CG    CG    0.000  1.000
    6012 POLY   1 POL  CG    CG    0.000  1.000
    6013 POLY   1 POL  CG    CG    0.000  1.000
    6014 POLY   1 POL  CG    CG    0.000  1.000
    6015 POLY   1 POL  CG    CG    0.000  1.000
    6016 POLY   1 POL  CG    CG    0.000  1.000
    6017 POLY   1 POL  CG    CG    0.000  1.000
    6018 POLY   1 POL  CG    CG    0.000  1.000
    6019 POLY   1 POL  CG    CG    0.000  1.000
    6020 POLY   1 POL  CG    CG    0.000  1.000
    6021 POLY   1 POL  CG    CG    0.000  1.000
    6022 POLY   1 POL  CG    CG    0.000  1.000
    6023 POLY   1 POL  CG    CG    0.000  1.000
    6024 POLY   1 POL  CG    CG    0.000  1.000
    6025 POLY   1 POL  CG    CG    0.000  1.000
    6026 POLY   1 POL  CG    CG    0.000  1.000
    6027 POLY   1 POL  CG    CG    0.000  1.000
    6028 POLY   1 POL  CG    CG    0.000  1.000
    6029 POLY   1 POL  CG    CG    0.000  1.000
    6030 POLY   1 POL  CG    CG    0.000  1.000
    6031 POLY   1 POL  CG    CG    0.000  1.000
    6032 POLY   1 POL  CG    CG    0.000  1.000
    6033 POLY   1 POL  CG    CG    0.000  1.000
    6034 POLY   1 POL  CG    CG    0.000  1.000
    6035 POLY   1 POL  CG    CG    0.000  1.000
    6036 POLY   1 POL  CG    CG    0.000  1.000
    6037 POLY   1 POL  CG    CG    0.000  1.000
    6038 POLY   1 POL  CG    CG    0.000  1.000
    6039 POLY   1 POL  CG    CG    0.000  1.000
    6040 POLY   1 POL  CG    CG    0.000  1.000
    6041 POLY   1 POL  CG    CG    0.000  1.000
    6042 POLY   1 POL  CG    CG    0.000  1.000
    6043 POLY   1 POL  CG    CG    0.000  1.000
    6044 POLY   1 POL  CG    CG    0.000  1.000
    6045 POLY   1 POL  CG    CG    0.000  1.000
    6046 POLY   1 POL  CG    CG    0.000  1.000
    6047 POLY   1 POL  CG    CG    0.000  1.000
    6048 POLY   1 POL  CG    CG    0.000  1.000
    6049 POLY   1 POL  CG    CG    0.000  1.000
    6050 POLY   1 POL  CG    CG    0.000  1.000
    6051 POLY   1 POL  CG    CG    0.000  1.000
    6052 POLY   1 POL  CG    CG    0.000  1.000
    6053 POLY   1 POL  CG    CG    0.000  1.000
    6054 POLY   1 POL  CG    CG    0.000  1.000
    6055 POLY   1 POL  CG    CG    0.000  1.000
    6056 POLY   1 POL  CG    CG    0.000  1.000
    6057 POLY   1 POL  CG    CG    0.000  1.000
    6058 POLY   1 POL  CG    CG    0.000  1.000
    6059 POLY   1 POL  CG    CG    0.000  1.000
    6060 POLY   1 POL  CG    CG    0.000  1.000
    6061 POLY   1 POL  CG    CG    0.000  1.000
    6062 POLY   1 POL  CG    CG    0.000  1.000
    6063 POLY   1 POL  CG    CG    0.000  1.000
    6064 POLY   1 POL  CG    CG    0.000  1.000
    6065 POLY   1 POL  CG    CG    0.000  1.000
    6066 POLY   1 POL  CG    CG    0.000  1.000
    6067 POLY   1 POL  CG    CG    0.000  1.000
    6068 POLY   1 POL  CG    CG    0.000  1.000
    6069 POLY   1 POL  CG    CG    0.000  1.000
    6070 POLY   1 POL  CG    CG    0.000  1.000
    6071 POLY   1 POL  CG    CG    0.000  1.000
    6072 POLY   1 POL  CG    CG    0.000  1.000
    6073 POLY   1 POL  CG    CG    0.000  1.000
    6074 POLY   1 POL  CG    CG    0.000  1.000
    6075 POLY   1 POL  CG    CG    0.000  1.000
    6076 POLY   1 POL  CG    CG    0.000  1.000
    6077 POLY   1 POL  CG    CG    0.000  1.000
    6078 POLY   1 POL  CG    CG    0.000  1.000
    6079 POLY   1 POL  CG    CG    0.000  1.000
    6080 POLY   1 POL  CG    CG    0.000  1.000
    6081 POLY   1 POL  CG    CG    0.000  1.000
    6082 POLY   1 POL  CG    CG    0.000  1.000
    6083 POLY   1 POL  CG    CG    0.000  1.000
    6084 POLY   1 POL  CG    CG    0.000  1.000
    6085 POLY   1 POL  CG    CG    0.000  1.000
    6086 POLY   1 POL  CG    CG    0.000  1.000
    6087 POLY   1 POL  CG    CG    0.000  1.000
    6088 POLY   1 POL  CG    CG    0.000  1.000
    6089 POLY   1 POL  CG    CG    0.000  1.000
    6090 POLY   1 POL  CG    CG    0.000  1.000
    6091 POLY   1 POL  CG    CG    0.000  1.000
    6092 POLY   1 POL  CG    CG    0.000  1.000
    6093 POLY   1 POL  CG    CG    0.000  1.000
    6094 POLY   1 POL  CG    CG    0.000  1.000
    6095 POLY   1 POL  CG    CG    0.000  1.000
    6096 POLY   1 POL  CG    CG    0.000  1.000
    6097 POLY   1 POL  CG    CG    0.000  1.000
    6098 POLY   1 POL  CG    CG    0.000  1.000
    6099 POLY   1 POL  CG    CG    0.000  1.000
    6100 POLY   1 POL  CG    CG    0.000  1.000
    6101 POLY   1 POL  CG    CG    0.000  1.000
    6102 POLY   1 POL  CG    CG    0.000  1.000
    6103 POLY   1 POL  CG    CG    0.000  1.000
    6104 POLY   1 POL  CG    CG    0.000  1.000
    6105 POLY   1 POL  CG    CG    0.000  1.000
    6106 POLY   1 POL  CG    CG    0.000  1.000
    6107 POLY   1 POL  CG    CG    0.000  1.000
    6108 POLY   1 POL  CG    CG    0.000  1.000
    6109 POLY   1 POL  CG    CG    0.000  1.000
    6110 POLY   1 POL  CG    CG    0.000  1.000
    6111 POLY   1 POL  CG    CG    0.000  1.000
    6112 POLY   1 POL  CG    CG    0.000  1.000
    6113 POLY   1 POL  CG    CG    0.000  1.000
    6114 POLY   1 POL  CG    CG    0.000  1.000
    6115 POLY   1 POL  CG    CG    0.000  1.000
    6116 POLY   1 POL  CG    CG    0.000  1.000
    6117 POLY   1 POL  CG    CG    0.000  1.000
    6118 POLY   1 POL  CG    CG    0.000  1.000
    6119 POLY   1 POL  CG    CG    0.000  1.000
    6120 POLY   1 POL  CG    CG    0.000  1.000
    6121 POLY   1 POL  CG    CG    0.000  1.000
    6122 POLY   1 POL  CG    CG    0.000  1.000
    6123 POLY   1 POL  CG    CG    0.000  1.000
    6124 POLY   1 POL  CG    CG    0.000  1.000
    6125 POLY   1 POL  CG    CG    0.000  1.000
    6126 POLY   1 POL  CG    CG    0.000  1.000
    6127 POLY   1 POL  CG    CG    0.000  1.000
    6128 POLY   1 POL  CG    CG    0.000  1.000
    6129 POLY   1 POL  CG    CG    0.000  1.000
    6130 POLY   1 POL  CG    CG    0.000  1.000
    6131 POLY   1 POL  CG    CG    0.000  1.000
    6132 POLY   1 POL  CG    CG    0.000  1.000
    6133 POLY   1 POL  CG    CG    0.000  1.000
    6134 POLY   1 POL  CG    CG    0.000  1.000
    6135 POLY   1 POL  CG    CG    0.000  1.000
    6136 POLY   1 POL  CG    CG    0.000  1.000
    6137 POLY   1 POL  CG    CG    0.000  1.000
    6138 POLY   1 POL  CG    CG    0.000  1.000
    6139 POLY   1 POL  CG    CG    0.000  1.000
    6140 POLY   1 POL  CG    CG    0.000  1.000
    6141 POLY   1 POL  CG    CG    0.000  1.000
    6142 POLY   1 POL  CG    CG    0.000  1.000
    6143 POLY   1 POL  CG    CG    0.000  1.000
    6144 POLY   1 POL  CG    CG    0.000  1.000
    6145 POLY   1 POL  CG    CG    0.000  1.000
    6146 POLY   1 POL  CG    CG    0.000  1.000
    6147 POLY   1 POL  CG    CG    0.000  1.000
    6148 POLY   1 POL  CG    CG    0.000  1.000
    6149 POLY   1 POL  CG    CG    0.000  1.000
    6150 POLY   1 POL  CG    CG    0.000  1.000
    6151 POLY   1 POL  CG    CG    0.000  1.000
    6152 POLY   1 POL  CG    CG    0.000  1.000
    6153 POLY   1 POL  CG    CG    0.000  1.000
    6154 POLY   1 POL  CG    CG    0.000  1.000
    6155 POLY   1 POL  CG    CG    0.000  1.000
    6156 POLY   1 POL  CG    CG    0.000  1.000
    6157 POLY   1 POL  CG    CG    0.000  1.000
    6158 POLY   1 POL  CG    CG    0.000  1.000
    6159 POLY   1 POL  CG    CG    0.000  1.000
    6160 POLY   1 POL  CG    CG    0.000  1.000
    6161 POLY   1 POL  CG    CG    0.000  1.000
    6162 POLY   1 POL  CG    CG    0.000  1.000
    6163 POLY   1 POL  CG    CG    0.000  1.000
    6164 POLY   1 POL  CG    CG    0.000  1.000
    6165 POLY   1 POL  CG    CG    0.000  1.000
    6166 POLY   1 POL  CG    CG    0.000  1.000
    6167 POLY   1 POL  CG    CG    0.000  1.000
    6168 POLY   1 POL  CG    CG    0.000  1.000
    6169 POLY   1 POL  CG    CG    0.000  1.000
    6170 POLY   1 POL  CG    CG    0.000  1.000
    6171 POLY   1 POL  CG    CG    0.000  1.000
    6172 POLY   1 POL  CG    CG    0.000  1.000
    6173 POLY   1 POL  CG    CG    0.000  1.000
    6174 POLY   1 POL  CG    CG    0.000  1.000
    6175 POLY   1 POL  CG    CG    0.000  1.000
    6176 POLY   1 POL  CG    CG    0.000  1.000
    6177 POLY   1 POL  CG    CG    0.000  1.000
    6178 POLY   1 POL  CG    CG    0.000  1.000
    6179 POLY   1 POL  CG    CG    0.000  1.000
    6180 POLY   1 POL  CG    CG    0.000  1.000
    6181 POLY   1 POL  CG    CG    0.000  1.000
    6182 POLY   1 POL  CG    CG    0.000  1.000
    6183 POLY   1 POL  CG    CG    0.000  1.000
    6184 POLY   1 POL  CG    CG    0.000  1.000
    6185 POLY   1 POL  CG    CG    0.000  1.000
    6186 POLY   1 POL  CG    CG    0.000  1.000
    6187 POLY   1 POL  CG    CG    0.000  1.000
    6188 POLY   1 POL  CG    CG    0.000  1.000
    6189 POLY   1 POL  CG    CG    0.000  1.000
    6190 POLY   1 POL  CG    CG    0.000  1.000
    6191 POLY   1 POL  CG    CG    0.000  1.000
    6192 POLY   1 POL  CG    CG    0.000  1.000
    6193 POLY   1 POL  CG    CG    0.000  1.000
    6194 POLY   1 POL  CG    CG    0.000  1.000
    6195 POLY   1 POL  CG    CG    0.000  1.000
    6196 POLY   1 POL  CG    CG    0.000  1.000
    6197 POLY   1 POL  CG    CG    0.000  1.000
    6198 POLY   1 POL  CG    CG    0.000  1.000
    6199 POLY   1 POL  CG    CG    0.000  1.000
    6200 POLY   1 POL  CG    CG    0.000  1.000
    6201 POLY   1 POL  CG    CG    0.000  1.000
    6202 POLY   1 POL  CG    CG    0.000  1.000
    6203 POLY   1 POL  CG    CG    0.000  1.000
    6204 POLY   1 POL  CG    CG    0.000  1.000
    6205 POLY   1 POL  CG    CG    0.000  1.000
    6206 POLY   1 POL  CG    CG    0.000  1.000
    6207 POLY   1 POL  CG    CG    0.000  1.000
    6208 POLY   1 POL  CG    CG    0.000  1.000
    6209 POLY   1 POL  CG    CG    0.000  1.000
    6210 POLY   1 POL  CG    CG    0.000  1.000
    6211 POLY   1 POL  CG    CG    0.000  1.000
    6212 POLY   1 POL  CG    CG    0.000  1.000
    6213 POLY   1 POL  CG    CG    0.000  1.000
    6214 POLY   1 POL  CG    CG    0.000  1.000
    6215 POLY   1 POL  CG    CG    0.000  1.000
    6216 POLY   1 POL  CG    CG    0.000  1.000
    6217 POLY   1 POL  CG    CG    0.000  1.000
    6218 POLY   1 POL  CG    CG    0.000  1.000
    6219 POLY   1 POL  CG    CG    0.000  1.000
    6220 POLY   1 POL  CG    CG    0.000  1.000
    6221 POLY   1 POL  CG    CG    0.000  1.000
    6222 POLY   1 POL  CG    CG    0.000  1.000
    6223 POLY   1 POL  CG    CG    0.000  1.000
    6224 POLY   1 POL  CG    CG    0.000  1.000
    6225 POLY   1 POL  CG    CG    0.000  1.000
    6226 POLY   1 POL  CG    CG    0.000  1.000
    6227 POLY   1 POL  CG    CG    0.000  1.000
    6228 POLY   1 POL  CG    CG    0.000  1.000
    6229 POLY   1 POL  CG    CG    0.000  1.000
    6230 POLY   1 POL  CG    CG    0.000  1.000
    6231 POLY   1 POL  CG    CG    0.000  1.000
    6232 POLY   1 POL  CG    CG    0.000  1.000
    6233 POLY   1 POL  CG    CG    0.000  1.000
    6234 POLY   1 POL  CG    CG    0.000  1.000
    6235 POLY   1 POL  CG    CG    0.000  1.000
    6236 POLY   1 POL  CG    CG    0.000  1.000
    6237 POLY   1 POL  CG    CG    0.000  1.000
    6238 POLY   1 POL  CG    CG    0.000  1.000
    6239 POLY   1 POL  CG    CG    0.000  1.000
    6240 POLY   1 POL  CG    CG    0.000  1.000
    6241 POLY   1 POL  CG    CG    0.000  1.000
    6242 POLY   1 POL  CG    CG    0.000  1.000
    6243 POLY   1 POL  CG    CG    0.000  1.000
    6244 POLY   1 POL  CG    CG    0.000  1.000
    6245 POLY   1 POL  CG    CG    0.000  1.000
    6246 POLY   1 POL  CG    CG    0.000  1.000
    6247 POLY   1 POL  CG    CG    0.000  1.000
    6248 POLY   1 POL  CG    CG    0.000  1.000
    6249 POLY   1 POL  CG    CG    0.000  1.000
    6250 POLY   1 POL  CG    CG    0.000  1.000
    6251 POLY   1 POL  CG    CG    0.000  1.000
    6252 POLY   1 POL  CG    CG    0.000  1.000
    6253 POLY   1 POL  CG    CG    0.000  1.000
    6254 POLY   1 POL  CG    CG    0.000  1.000
    6255 POLY   1 POL  CG    CG    0.000  1.000
    6256 POLY   1 POL  CG    CG    0.000  1.000
    6257 POLY   1 POL  CG    CG    0.000  1.000
    6258 POLY   1 POL  CG    CG    0.000  1.000
    6259 POLY   1 POL  CG    CG    0.000  1.000
    6260 POLY   1 POL  CG    CG    0.000  1.000
    6261 POLY   1 POL  CG    CG    0.000  1.000
    6262 POLY   1 POL  CG    CG    0.000  1.000
    6263 POLY   1 POL  CG    CG    0.000  1.000
    6264 POLY   1 POL  CG    CG    0.000  1.000
    6265 POLY   1 POL  CG    CG    0.000  1.000
    6266 POLY   1 POL  CG    CG    0.000  1.000
    6267 POLY   1 POL  CG    CG    0.000  1.000
    6268 POLY   1 POL  CG    CG    0.000  1.000
    6269 POLY   1 POL  CG    CG    0.000  1.000
    6270 POLY   1 POL  CG    CG    0.000  1.000
    6271 POLY   1 POL  CG    CG    0.000  1.000
    6272 POLY   1 POL  CG    CG    0.000  1.000
    6273 POLY   1 POL  CG    CG    0.000  1.000
    6274 POLY   1 POL  CG    CG    0.000  1.000
    6275 POLY   1 POL  CG    CG    0.000  1.000
    6276 POLY   1 POL  CG    CG    0.000  1.000
    6277 POLY   1 POL  CG    CG    0.000  1.000
    6278 POLY   1 POL  CG    CG    0.000  1.000
    6279 POLY   1 POL  CG    CG    0.000  1.000
    6280 POLY   1 POL  CG    CG    0.000  1.000
    6281 POLY   1 POL  CG    CG    0.000  1.000
    6282 POLY   1 POL  CG    CG    0.000  1.000
    6283 POLY   1 POL  CG    CG    0.000  1.000
    6284 POLY   1 POL  CG    CG    0.000  1.000
    6285 POLY   1 POL  CG    CG    0.000  1.000
    6286 POLY   1 POL  CG    CG    0.000  1.000
    6287 POLY   1 POL  CG    CG    0.000  1.000
    6288 POLY   1 POL  CG    CG    0.000  1.000
    6289 POLY   1 POL  CG    CG    0.000  1.000
    6290 POLY   1 POL  CG    CG    0.000  1.000
    6291 POLY   1 POL  CG    CG    0.000  1.000
    6292 POLY   1 POL  CG    CG    0.000  1.000
    6293 POLY   1 POL  CG    CG    0.000  1.000
    6294 POLY   1 POL  CG    CG    0.000  1.000
    6295 POLY   1 POL  CG    CG    0.000  1.000
    6296 POLY   1 POL  CG    CG    0.000  1.000
    6297 POLY   1 POL  CG    CG    0.000  1.000
    6298 POLY   1 POL  CG    CG    0.000  1.000
    6299 POLY   1 POL  CG    CG    0.000  1.000
    6300 POLY   1 POL  CG    CG    0.000  1.000
    6301 POLY   1 POL  CG    CG    0.000  1.000
    6302 POLY   1 POL  CG    CG    0.000  1.000
    6303 POLY   1 POL  CG    CG    0.000  1.000
    6304 POLY   1 POL  CG    CG    0.000  1.000
    6305 POLY   1 POL  CG    CG    0.000  1.000
    6306 POLY   1 POL  CG    CG    0.000  1.000
    6307 POLY   1 POL  CG    CG    0.000  1.000
    6308 POLY   1 POL  CG    CG    0.000  1.000
    6309 POLY   1 POL  CG    CG    0.000  1.000
    6310 POLY   1 POL  CG    CG    0.000  1.000
    6311 POLY   1 POL  CG    CG    0.000  1.000
    6312 POLY   1 POL  CG    CG    0.000  1.000
    6313 POLY   1 POL  CG    CG    0.000  1.000
    6314 POLY   1 POL  CG    CG    0.000  1.000
    6315 POLY   1 POL  CG    CG    0.000  1.000
    6316 POLY   1 POL  CG    CG    0.000  1.000
    6317 POLY   1 POL  CG    CG    0.000  1.000
    6318 POLY   1 POL  CG    CG    0.000  1.000
    6319 POLY   1 POL  CG    CG    0.000  1.000
    6320 POLY   1 POL  CG    CG    0.000  1.000
    6321 POLY   1 POL  CG    CG    0.000  1.000
    6322 POLY   1 POL  CG    CG    0.000  1.000
    6323 POLY   1 POL  CG    CG    0.000  1.000
    6324 POLY   1 POL  CG    CG    0.000  1.000
    6325 POLY   1 POL  CG    CG    0.000  1.000
    6326 POLY   1 POL  CG    CG    0.000  1.000
    6327 POLY   1 POL  CG    CG    0.000  1.000
    6328 POLY   1 POL  CG    CG    0.000  1.000
    6329 POLY   1 POL  CG    CG    0.000  1.000
    6330 POLY   1 POL  CG    CG    0.000  1.000
    6331 POLY   1 POL  CG    CG    0.000  1.000
    6332 POLY   1 POL  CG    CG    0.000  1.000
    6333 POLY   1 POL  CG    CG    0.000  1.000
    6334 POLY   1 POL  CG    CG    0.000  1.000
    6335 POLY   1 POL  CG    CG    0.000  1.000
    6336 POLY   1 POL  CG    CG    0.000  1.000
    6337 POLY   1 POL  CG    CG    0.000  1.000
    6338 POLY   1 POL  CG    CG    0.000  1.000
    6339 POLY   1 POL  CG    CG    0.000  1.000
    6340 POLY   1 POL  CG    CG    0.000  1.000
    6341 POLY   1 POL  CG    CG    0.000  1.000
    6342 POLY   1 POL  CG    CG    0.000  1.000
    6343 POLY   1 POL  CG    CG    0.000  1.000
    6344 POLY   1 POL  CG    CG    0.000  1.000
    6345 POLY   1 POL  CG    CG    0.000  1.000
    6346 POLY   1 POL  CG    CG    0.000  1.000
    6347 POLY   1 POL  CG    CG    0.000  1.000
    6348 POLY   1 POL  CG    CG    0.000  1.000
    6349 POLY   1 POL  CG    CG    0.000  1.000
    6350 POLY   1 POL  CG    CG    0.000  1.000
    6351 POLY   1 POL  CG    CG    0.000  1.000
    6352 POLY   1 POL  CG    CG    0.000  1.000
    6353 POLY   1 POL  CG    CG    0.000  1.000
    6354 POLY   1 POL  CG    CG    0.000  1.000
    6355 POLY   1 POL  CG    CG    0.000  1.000
    6356 POLY   1 POL  CG    CG    0.000  1.000
    6357 POLY   1 POL  CG    CG    0.000  1.000
    6358 POLY   1 POL  CG    CG    0.000  1.000
    6359 POLY   1 POL  CG    CG    0.000  1.000
    6360 POLY   1 POL  CG    CG    0.000  1.000
    6361 POLY   1 POL  CG    CG    0.000  1.000
    6362 POLY   1 POL  CG    CG    0.000  1.000
    6363 POLY   1 POL  CG    CG    0.000  1.000
    6364 POLY   1 POL  CG    CG    0.000  1.000
    6365 POLY   1 POL  CG    CG    0.000  1.000
    6366 POLY   1 POL  CG    CG    0.000  1.000
    6367 POLY   1 POL  CG    CG    0.000  1.000
    6368 POLY   1 POL  CG    CG    0.000  1.000
    6369 POLY   1 POL  CG    CG    0.000  1.000
    6370 POLY   1 POL  CG    CG    0.000  1.000
    6371 POLY   1 POL  CG    CG    0.000  1.000
    6372 POLY   1 POL  CG    CG    0.000  1.000
    6373 POLY   1 POL  CG    CG    0.000  1.000
    6374 POLY   1 POL  CG    CG    0.000  1.000
    6375 POLY   1 POL  CG    CG    0.000  1.000
    6376 POLY   1 POL  CG    CG    0.000  1.000
    6377 POLY   1 POL  CG    CG    0.000  1.000
    6378 POLY   1 POL  CG    CG    0.000  1.000
    6379 POLY   1 POL  CG    CG    0.000  1.000
    6380 POLY   1 POL  CG    CG    0.000  1.000
    6381 POLY   1 POL  CG    CG    0.000  1.000
    6382 POLY   1 POL  CG    CG    0.000  1.000
    6383 POLY   1 POL  CG    CG    0.000  1.000
    6384 POLY   1 POL  CG    CG    0.000  1.000
    6385 POLY   1 POL  CG    CG    0.000  1.000
    6386 POLY   1 POL  CG    CG    0.000  1.000
    6387 POLY   1 POL  CG    CG    0.000  1.000
    6388 POLY   1 POL  CG    CG    0.000  1.000
    6389 POLY   1 POL  CG    CG    0.000  1.000
    6390 POLY   1 POL  CG    CG    0.000  1.000
    6391 POLY   1 POL  CG    CG    0.000  1.000
    6392 POLY   1 POL  CG    CG    0.000  1.000
    6393 POLY   1 POL  CG    CG    0.000  1.000
    6394 POLY   1 POL  CG    CG    0.000  1.000
    6395 POLY   1 POL  CG    CG    0.000  1.000
    6396 POLY   1 POL  CG    CG    0.000  1.000
    6397 POLY   1 POL  CG    CG    0.000  1.000
    6398 POLY   1 POL  CG    CG    0.000  1.000
    6399 POLY   1 POL  CG    CG    0.000  1.000
    6400 POLY   1 POL  CG    CG    0.000  1.000
    6401 POLY   1 POL  CG    CG    0.000  1.000
    6402 POLY   1 POL  CG    CG    0.000  1.000
    6403 POLY   1 POL  CG    CG    0.000  1.000
    6404 POLY   1 POL  CG    CG    0.000  1.000
    6405 POLY   1 POL  CG    CG    0.000  1.000
    6406 POLY   1 POL  CG    CG    0.000  1.000
    6407 POLY   1 POL  CG    CG    0.000  1.000
    6408 POLY   1 POL  CG    CG    0.000  1.000
    6409 POLY   1 POL  CG    CG    0.000  1.000
    6410 POLY   1 POL  CG    CG    0.000  1.000
    6411 POLY   1 POL  CG    CG    0.000  1.000
    6412 POLY   1 POL  CG    CG    0.000  1.000
    6413 POLY   1 POL  CG    CG    0.000  1.000
    6414 POLY   1 POL  CG    CG    0.000  1.000
    6415 POLY   1 POL  CG    CG    0.000  1.000
    6416 POLY   1 POL  CG    CG    0.000  1.000
    6417 POLY   1 POL  CG    CG    0.000  1.000
    6418 POLY   1 POL  CG    CG    0.000  1.000
    6419 POLY   1 POL  CG    CG    0.000  1.000
    6420 POLY   1 POL  CG    CG    0.000  1.000
    6421 POLY   1 POL  CG    CG    0.000  1.000
    6422 POLY   1 POL  CG    CG    0.000  1.000
    6423 POLY   1 POL  CG    CG    0.000  1.000
    6424 POLY   1 POL  CG    CG    0.000  1.000
    6425 POLY   1 POL  CG    CG    0.000  1.000
    6426 POLY   1 POL  CG    CG    0.000  1.000
    6427 POLY   1 POL  CG    CG    0.000  1.000
    6428 POLY   1 POL  CG    CG    0.000  1.000
    6429 POLY   1 POL  CG    CG    0.000  1.000
    6430 POLY   1 POL  CG    CG    0.000  1.000
    6431 POLY   1 POL  CG    CG    0.000  1.000
    6432 POLY   1 POL  CG    CG    0.000  1.000
    6433 POLY   1 POL  CG    CG    0.000  1.000
    6434 POLY   1 POL  CG    CG    0.000  1.000
    6435 POLY   1 POL  CG    CG    0.000  1.000
    6436 POLY   1 POL  CG    CG    0.000  1.000
    6437 POLY   1 POL  CG    CG    0.000  1.000
    6438 POLY   1 POL  CG    CG    0.000  1.000
    6439 POLY   1 POL  CG    CG    0.000  1.000
    6440 POLY   1 POL  CG    CG    0.000  1.000
    6441 POLY   1 POL  CG    CG    0.000  1.000
    6442 POLY   1 POL  CG    CG    0.000  1.000
    6443 POLY   1 POL  CG    CG    0.000  1.000
    6444 POLY   1 POL  CG    CG    0.000  1.000
    6445 POLY   1 POL  CG    CG    0.000  1.000
    6446 POLY   1 POL  CG    CG    0.000  1.000
    6447 POLY   1 POL  CG    CG    0.000  1.000
    6448 POLY   1 POL  CG    CG    0.000  1.000
    6449 POLY   1 POL  CG    CG    0.000  1.000
    6450 POLY   1 POL  CG    CG    0.000  1.000
    6451 POLY   1 POL  CG    CG    0.000  1.000
    6452 POLY   1 POL  CG    CG    0.000  1.000
    6453 POLY   1 POL  CG    CG    0.000  1.000
    6454 POLY   1 POL  CG    CG    0.000  1.000
    6455 POLY   1 POL  CG    CG    0.000  1.000
    6456 POLY   1 POL  CG    CG    0.000  1.000
    6457 POLY   1 POL  CG    CG    0.000  1.000
    6458 POLY   1 POL  CG    CG    0.000  1.000
    6459 POLY   1 POL  CG    CG    0.000  1.000
    6460 POLY   1 POL  CG    CG    0.000  1.000
    6461 POLY   1 POL  CG    CG    0.000  1.000
    6462 POLY   1 POL  CG    CG    0.000  1.000
    6463 POLY   1 POL  CG    CG    0.000  1.000
    6464 POLY   1 POL  CG    CG    0.000  1.000
    6465 POLY   1 POL  CG    CG    0.000  1.000
    6466 POLY   1 POL  CG    CG    0.000  1.000
    6467 POLY   1 POL  CG    CG    0.000  1.000
    6468 POLY   1 POL  CG    CG    0.000  1.000
    6469 POLY   1 POL  CG    CG    0.000  1.000
    6470 POLY   1 POL  CG    CG    0.000  1.000
    6471 POLY   1 POL  CG    CG    0.000  1.000
    6472 POLY   1 POL  CG    CG    0.000  1.000
    6473 POLY   1 POL  CG    CG    0.000  1.000
    6474 POLY   1 POL  CG    CG    0.000  1.000
    6475 POLY   1 POL  CG    CG    0.000  1.000
    6476 POLY   1 POL  CG    CG    0.000  1.000
    6477 POLY   1 POL  CG    CG    0.000  1.000
    6478 POLY   1 POL  CG    CG    0.000  1.000
    6479 POLY   1 POL  CG    CG    0.000  1.000
    6480 POLY   1 POL  CG    CG    0.000  1.000
    6481 POLY   1 POL  CG    CG    0.000  1.000
    6482 POLY   1 POL  CG    CG    0.000  1.000
    6483 POLY   1 POL  CG    CG    0.000  1.000
    6484 POLY   1 POL  CG    CG    0.000  1.000
    6485 POLY   1 POL  CG    CG    0.000  1.000
    6486 POLY   1 POL  CG    CG    0.000  1.000
    6487 POLY   1 POL  CG    CG    0.000  1.000
    6488 POLY   1 POL  CG    CG    0.000  1.000
    6489 POLY   1 POL  CG    CG    0.000  1.000
    6490 POLY   1 POL  CG    CG    0.000  1.000
    6491 POLY   1 POL  CG    CG    0.000  1.000
    6492 POLY   1 POL  CG    CG    0.000  1.000
    6493 POLY   1 POL  CG    CG    0.000  1.000
    6494 POLY   1 POL  CG    CG    0.000  1.000
    6495 POLY   1 POL  CG    CG    0.000  1.000
    6496 POLY   1 POL  CG    CG    0.000  1.000
    6497 POLY   1 POL  CG    CG    0.000  1.000
    6498 POLY   1 POL  CG    CG    0.000  1.000
    6499 POLY   1 POL  CG    CG    0.000  1.000
    6500 POLY   1 POL  CG    CG    0.000  1.000
    6501 POLY   1 POL  CG    CG    0.000  1.000
    6502 POLY   1 POL  CG    CG    0.000  1.000
    6503 POLY   1 POL  CG    CG    0.000  1.000
    6504 POLY   1 POL  CG    CG    0.000  1.000
    6505 POLY   1 POL  CG    CG    0.000  1.000
    6506 POLY   1 POL  CG    CG    0.000  1.000
    6507 POLY   1 POL  CG    CG    0.000  1.000
    6508 POLY   1 POL  CG    CG    0.000  1.000
    6509 POLY   1 POL  CG    CG    0.000  1.000
    6510 POLY   1 POL  CG    CG    0.000  1.000
    6511 POLY   1 POL  CG    CG    0.000  1.000
    6512 POLY   1 POL  CG    CG    0.000  1.000
    6513 POLY   1 POL  CG    CG    0.000  1.000
    6514 POLY   1 POL  CG    CG    0.000  1.000
    6515 POLY   1 POL  CG    CG    0.000  1.000
    6516 POLY   1 POL  CG    CG    0.000  1.000
    6517 POLY   1 POL  CG    CG    0.000  1.000
    6518 POLY   1 POL  CG    CG    0.000  1.000
    6519 POLY   1 POL  CG    CG    0.000  1.000
    6520 POLY   1 POL  CG    CG    0.000  1.000
    6521 POLY   1 POL  CG    CG    0.000  1.000
    6522 POLY   1 POL  CG    CG    0.000  1.000
    6523 POLY   1 POL  CG    CG    0.000  1.000
    6524 POLY   1 POL  CG    CG    0.000  1.000
    6525 POLY   1 POL  CG    CG    0.000  1.000
    6526 POLY   1 POL  CG    CG    0.000  1.000
    6527 POLY   1 POL  CG    CG    0.000  1.000
    6528 POLY   1 POL  CG    CG    0.000  1.000
    6529 POLY   1 POL  CG    CG    0.000  1.000
    6530 POLY   1 POL  CG    CG    0.000  1.000
    6531 POLY   1 POL  CG    CG    0.000  1.000
    6532 POLY   1 POL  CG    CG    0.000  1.000
    6533 POLY   1 POL  CG    CG    0.000  1.000
    6534 POLY   1 POL  CG    CG    0.000  1.000
    6535 POLY   1 POL  CG    CG    0.000  1.000
    6536 POLY   1 POL  CG    CG    0.000  1.000
    6537 POLY   1 POL  CG    CG    0.000  1.000
    6538 POLY   1 POL  CG    CG    0.000  1.000
    6539 POLY   1 POL  CG    CG    0.000  1.000
    6540 POLY   1 POL  CG    CG    0.000  1.000
    6541 POLY   1 POL  CG    CG    0.000  1.000
    6542 POLY   1 POL  CG    CG    0.000  1.000
    6543 POLY   1 POL  CG    CG    0.000  1.000
    6544 POLY   1 POL  CG    CG    0.000  1.000
    6545 POLY   1 POL  CG    CG    0.000  1.000
    6546 POLY   1 POL  CG    CG    0.000  1.000
    6547 POLY   1 POL  CG    CG    0.000  1.000
    6548 POLY   1 POL  CG    CG    0.000  1.000
    6549 POLY   1 POL  CG    CG    0.000  1.000
    6550 POLY   1 POL  CG    CG    0.000  1.000
    6551 POLY   1 POL  CG    CG    0.000  1.000
    6552 POLY   1 POL  CG    CG    0.000  1.000
    6553 POLY   1 POL  CG    CG    0.000  1.000
    6554 POLY   1 POL  CG    CG    0.000  1.000
    6555 POLY   1 POL  CG    CG    0.000  1.000
    6556 POLY   1 POL  CG    CG    0.000  1.000
    6557 POLY   1 POL  CG    CG    0.000  1.000
    6558 POLY   1 POL  CG    CG    0.000  1.000
    6559 POLY   1 POL  CG    CG    0.000  1.000
    6560 POLY   1 POL  CG    CG    0.000  1.000
    6561 POLY   1 POL  CG    CG    0.000  1.000
    6562 POLY   1 POL  CG    CG    0.000  1.000
    6563 POLY   1 POL  CG    CG    0.000  1.000
    6564 POLY   1 POL  CG    CG    0.000  1.000
    6565 POLY   1 POL  CG    CG    0.000  1.000
    6566 POLY   1 POL  CG    CG    0.000  1.000
    6567 POLY   1 POL  CG    CG    0.000  1.000
    6568 POLY   1 POL  CG    CG    0.000  1.000
    6569 POLY   1 POL  CG    CG    0.000  1.000
    6570 POLY   1 POL  CG    CG    0.000  1.000
    6571 POLY   1 POL  CG    CG    0.000  1.000
    6572 POLY   1 POL  CG    CG    0.000  1.000
    6573 POLY   1 POL  CG    CG    0.000  1.000
    6574 POLY   1 POL  CG    CG    0.000  1.000
    6575 POLY   1 POL  CG    CG    0.000  1.000
    6576 POLY   1 POL  CG    CG    0.000  1.000
    6577 POLY   1 POL  CG    CG    0.000  1.000
    6578 POLY   1 POL  CG    CG    0.000  1.000
    6579 POLY   1 POL  CG    CG    0.000  1.000
    6580 POLY   1 POL  CG    CG    0.000  1.000
    6581 POLY   1 POL  CG    CG    0.000  1.000
    6582 POLY   1 POL  CG    CG    0.000  1.000
    6583 POLY   1 POL  CG    CG    0.000  1.000
    6584 POLY   1 POL  CG    CG    0.000  1.000
    6585 POLY   1 POL  CG    CG    0.000  1.000
    6586 POLY   1 POL  CG    CG    0.000  1.000
    6587 POLY   1 POL  CG    CG    0.000  1.000
    6588 POLY   1 POL  CG    CG    0.000  1.000
    6589 POLY   1 POL  CG    CG    0.000  1.000
    6590 POLY   1 POL  CG    CG    0.000  1.000
    6591 POLY   1 POL  CG    CG    0.000  1.000
    6592 POLY   1 POL  CG    CG    0.000  1.000
    6593 POLY   1 POL  CG    CG    0.000  1.000
    6594 POLY   1 POL  CG    CG    0.000  1.000
    6595 POLY   1 POL  CG    CG    0.000  1.000
    6596 POLY   1 POL  CG    CG    0.000  1.000
    6597 POLY   1 POL  CG    CG    0.000  1.000
    6598 POLY   1 POL  CG    CG    0.000  1.000
    6599 POLY   1 POL  CG    CG    0.000  1.000
    6600 POLY   1 POL  CG    CG    0.000  1.000
    6601 POLY   1 POL  CG    CG    0.000  1.000
    6602 POLY   1 POL  CG    CG    0.000  1.000
    6603 POLY   1 POL  CG    CG    0.000  1.000
    6604 POLY   1 POL  CG    CG    0.000  1.000
    6605 POLY   1 POL  CG    CG    0.000  1.000
    6606 POLY   1 POL  CG    CG    0.000  1.000
    6607 POLY   1 POL  CG    CG    0.000  1.000
    6608 POLY   1 POL  CG    CG    0.000  1.000
    6609 POLY   1 POL  CG    CG    0.000  1.000
    6610 POLY   1 POL  CG    CG    0.000  1.000
    6611 POLY   1 POL  CG    CG    0.000  1.000
    6612 POLY   1 POL  CG    CG    0.000  1.000
    6613 POLY   1 POL  CG    CG    0.000  1.000
    6614 POLY   1 POL  CG    CG    0.000  1.000
    6615 POLY   1 POL  CG    CG    0.000  1.000
    6616 POLY   1 POL  CG    CG    0.000  1.000
    6617 POLY   1 POL  CG    CG    0.000  1.000
    6618 POLY   1 POL  CG    CG    0.000  1.000
    6619 POLY   1 POL  CG    CG    0.000  1.000
    6620 POLY   1 POL  CG    CG    0.000  1.000
    6621 POLY   1 POL  CG    CG    0.000  1.000
    6622 POLY   1 POL  CG    CG    0.000  1.000
    6623 POLY   1 POL  CG    CG    0.000  1.000
    6624 POLY   1 POL  CG    CG    0.000  1.000
    6625 POLY   1 POL  CG    CG    0.000  1.000
    6626 POLY   1 POL  CG    CG    0.000  1.000
    6627 POLY   1 POL  CG    CG    0.000  1.000
    6628 POLY   1 POL  CG    CG    0.000  1.000
    6629 POLY   1 POL  CG    CG    0.000  1.000
    6630 POLY   1 POL  CG    CG    0.000  1.000
    6631 POLY   1 POL  CG    CG    0.000  1.000
    6632 POLY   1 POL  CG    CG    0.000  1.000
    6633 POLY   1 POL  CG    CG    0.000  1.000
    6634 POLY   1 POL  CG    CG    0.000  1.000
    6635 POLY   1 POL  CG    CG    0.000  1.000
    6636 POLY   1 POL  CG    CG    0.000  1.000
    6637 POLY   1 POL  CG    CG    0.000  1.000
    6638 POLY   1 POL  CG    CG    0.000  1.000
    6639 POLY   1 POL  CG    CG    0.000  1.000
    6640 POLY   1 POL  CG    CG    0.000  1.000
    6641 POLY   1 POL  CG    CG    0.000  1.000
    6642 POLY   1 POL  CG    CG    0.000  1.000
    6643 POLY   1 POL  CG    CG    0.000  1.000
    6644 POLY   1 POL  CG    CG    0.000  1.000
    6645 POLY   1 POL  CG    CG    0.000  1.000
    6646 POLY   1 POL  CG    CG    0.000  1.000
    6647 POLY   1 POL  CG    CG    0.000  1.000
    6648 POLY   1 POL  CG    CG    0.000  1.000
    6649 POLY   1 POL  CG    CG    0.000  1.000
    6650 POLY   1 POL  CG    CG    0.000  1.000
    6651 POLY   1 POL  CG    CG    0.000  1.000
    6652 POLY   1 POL  CG    CG    0.000  1.000
    6653 POLY   1 POL  CG    CG    0.000  1.000
    6654 POLY   1 POL  CG    CG    0.000  1.000
    6655 POLY   1 POL  CG    CG    0.000  1.000
    6656 POLY   1 POL  CG    CG    0.000  1.000
    6657 POLY   1 POL  CG    CG    0.000  1.000
    6658 POLY   1 POL  CG    CG    0.000  1.000
    6659 POLY   1 POL  CG    CG    0.000  1.000
    6660 POLY   1 POL  CG    CG    0.000  1.000
    6661 POLY   1 POL  CG    CG    0.000  1.000
    6662 POLY   1 POL  CG    CG    0.000  1.000
    6663 POLY   1 POL  CG    CG    0.000  1.000
    6664 POLY   1 POL  CG    CG    0.000  1.000
    6665 POLY   1 POL  CG    CG    0.000  1.000
    6666 POLY   1 POL  CG    CG    0.000  1.000
    6667 POLY   1 POL  CG    CG    0.000  1.000
    6668 POLY   1 POL  CG    CG    0.000  1.000
    6669 POLY   1 POL  CG    CG    0.000  1.000
    6670 POLY   1 POL  CG    CG    0.000  1.000
    6671 POLY   1 POL  CG    CG    0.000  1.000
    6672 POLY   1 POL  CG    CG    0.000  1.000
    6673 POLY   1 POL  CG    CG    0.000  1.000
    6674 POLY   1 POL  CG    CG    0.000  1.000
    6675 POLY   1 POL  CG    CG    0.000  1.000
    6676 POLY   1 POL  CG    CG    0.000  1.000
    6677 POLY   1 POL  CG    CG    0.000  1.000
    6678 POLY   1 POL  CG    CG    0.000  1.000
    6679 POLY   1 POL  CG    CG    0.000  1.000
    6680 POLY   1 POL  CG    CG    0.000  1.000
    6681 POLY   1 POL  CG    CG    0.000  1.000
    6682 POLY   1 POL  CG    CG    0.000  1.000
    6683 POLY   1 POL  CG    CG    0.000  1.000
    6684 POLY   1 POL  CG    CG    0.000  1.000
    6685 POLY   1 POL  CG    CG    0.000  1.000
    6686 POLY   1 POL  CG    CG    0.000  1.000
    6687 POLY   1 POL  CG    CG    0.000  1.000
    6688 POLY   1 POL  CG    CG    0.000  1.000
    6689 POLY   1 POL  CG    CG    0.000  1.000
    6690 POLY   1 POL  CG    CG    0.000  1.000
    6691 POLY   1 POL  CG    CG    0.000  1.000
    6692 POLY   1 POL  CG    CG    0.000  1.000
    6693 POLY   1 POL  CG    CG    0.000  1.000
    6694 POLY   1 POL  CG    CG    0.000  1.000
    6695 POLY   1 POL  CG    CG    0.000  1.000
    6696 POLY   1 POL  CG    CG    0.000  1.000
    6697 POLY   1 POL  CG    CG    0.000  1.000
    6698 POLY   1 POL  CG    CG    0.000  1.000
    6699 POLY   1 POL  CG    CG    0.000  1.000
    6700 POLY   1 POL  CG    CG    0.000  1.000
    6701 POLY   1 POL  CG    CG    0.000  1.000
    6702 POLY   1 POL  CG    CG    0.000  1.000
    6703 POLY   1 POL  CG    CG    0.000  1.000
    6704 POLY   1 POL  CG    CG    0.000  1.000
    6705 POLY   1 POL  CG    CG    0.000  1.000
    6706 POLY   1 POL  CG    CG    0.000  1.000
    6707 POLY   1 POL  CG    CG    0.000  1.000
    6708 POLY   1 POL  CG    CG    0.000  1.000
    6709 POLY   1 POL  CG    CG    0.000  1.000
    6710 POLY   1 POL  CG    CG    0.000  1.000
    6711 POLY   1 POL  CG    CG    0.000  1.000
    6712 POLY   1 POL  CG    CG    0.000  1.000
    6713 POLY   1 POL  CG    CG    0.000  1.000
    6714 POLY   1 POL  CG    CG    0.000  1.000
    6715 POLY   1 POL  CG    CG    0.000  1.000
    6716 POLY   1 POL  CG    CG    0.000  1.000
    6717 POLY   1 POL  CG    CG    0.000  1.000
    6718 POLY   1 POL  CG    CG    0.000  1.000
    6719 POLY   1 POL  CG    CG    0.000  1.000
    6720 POLY   1 POL  CG    CG    0.000  1.000
    6721 POLY   1 POL  CG    CG    0.000  1.000
    6722 POLY   1 POL  CG    CG    0.000  1.000
    6723 POLY   1 POL  CG    CG    0.000  1.000
    6724 POLY   1 POL  CG    CG    0.000  1.000
    6725 POLY   1 POL  CG    CG    0.000  1.000
    6726 POLY   1 POL  CG    CG    0.000  1.000
    6727 POLY   1 POL  CG    CG    0.000  1.000
    6728 POLY   1 POL  CG    CG    0.000  1.000
    6729 POLY   1 POL  CG    CG    0.000  1.000
    6730 POLY   1 POL  CG    CG    0.000  1.000
    6731 POLY   1 POL  CG    CG    0.000  1.000
    6732 POLY   1 POL  CG    CG    0.000  1.000
    6733 POLY   1 POL  CG    CG    0.000  1.000
    6734 POLY   1 POL  CG    CG    0.000  1.000
    6735 POLY   1 POL  CG    CG    0.000  1.000
    6736 POLY   1 POL  CG    CG    0.000  1.000
    6737 POLY   1 POL  CG    CG    0.000  1.000
    6738 POLY   1 POL  CG    CG    0.000  1.000
    6739 POLY   1 POL  CG    CG    0.000  1.000
    6740 POLY   1 POL  CG    CG    0.000  1.000
    6741 POLY   1 POL  CG    CG    0.000  1.000
    6742 POLY   1 POL  CG    CG    0.000  1.000
    6743 POLY   1 POL  CG    CG    0.000  1.000
    6744 POLY   1 POL  CG    CG    0.000  1.000
    6745 POLY   1 POL  CG    CG    0.000  1.000
    6746 POLY   1 POL  CG    CG    0.000  1.000
    6747 POLY   1 POL  CG    CG    0.000  1.000
    6748 POLY   1 POL  CG    CG    0.000  1.000
    6749 POLY   1 POL  CG    CG    0.000  1.000
    6750 POLY   1 POL  CG    CG    0.000  1.000
    6751 POLY   1 POL  CG    CG    0.000  1.000
    6752 POLY   1 POL  CG    CG    0.000  1.000
    6753 POLY   1 POL  CG    CG    0.000  1.000
    6754 POLY   1 POL  CG    CG    0.000  1.000
    6755 POLY   1 POL  CG    CG    0.000  1.000
    6756 POLY   1 POL  CG    CG    0.000  1.000
    6757 POLY   1 POL  CG    CG    0.000  1.000
    6758 POLY   1 POL  CG    CG    0.000  1.000
    6759 POLY   1 POL  CG    CG    0.000  1.000
    6760 POLY   1 POL  CG    CG    0.000  1.000
    6761 POLY   1 POL  CG    CG    0.000  1.000
    6762 POLY   1 POL  CG    CG    0.000  1.000
    6763 POLY   1 POL  CG    CG    0.000  1.000
    6764 POLY   1 POL  CG    CG    0.000  1.000
    6765 POLY   1 POL  CG    CG    0.000  1.000
    6766 POLY   1 POL  CG    CG    0.000  1.000
    6767 POLY   1 POL  CG    CG    0.000  1.000
    6768 POLY   1 POL  CG    CG    0.000  1.000
    6769 POLY   1 POL  CG    CG    0.000  1.000
    6770 POLY   1 POL  CG    CG    0.000  1.000
    6771 POLY   1 POL  CG    CG    0.000  1.000
    6772 POLY   1 POL  CG    CG    0.000  1.000
    6773 POLY   1 POL  CG    CG    0.000  1.000
    6774 POLY   1 POL  CG    CG    0.000  1.000
    6775 POLY   1 POL  CG    CG    0.000  1.000
    6776 POLY   1 POL  CG    CG    0.000  1.000
    6777 POLY   1 POL  CG    CG    0.000  1.000
    6778 POLY   1 POL  CG    CG    0.000  1.000
    6779 POLY   1 POL  CG    CG    0.000  1.000
    6780 POLY   1 POL  CG    CG    0.000  1.000
    6781 POLY   1 POL  CG    CG    0.000  1.000
    6782 POLY   1 POL  CG    CG    0.000  1.000
    6783 POLY   1 POL  CG    CG    0.000  1.000
    6784 POLY   1 POL  CG    CG    0.000  1.000
    6785 POLY   1 POL  CG    CG    0.000  1.000
    6786 POLY   1 POL  CG    CG    0.000  1.000
    6787 POLY   1 POL  CG    CG    0.000  1.000
    6788 POLY   1 POL  CG    CG    0.000  1.000
    6789 POLY   1 POL  CG    CG    0.000  1.000
    6790 POLY   1 POL  CG    CG    0.000  1.000
    6791 POLY   1 POL  CG    CG    0.000  1.000
    6792 POLY   1 POL  CG    CG    0.000  1.000
    6793 POLY   1 POL  CG    CG    0.000  1.000
    6794 POLY   1 POL  CG    CG    0.000  1.000
    6795 POLY   1 POL  CG    CG    0.000  1.000
    6796 POLY   1 POL  CG    CG    0.000  1.000
    6797 POLY   1 POL  CG    CG    0.000  1.000
    6798 POLY   1 POL  CG    CG    0.000  1.000
    6799 POLY   1 POL  CG    CG    0.000  1.000
    6800 POLY   1 POL  CG    CG    0.000  1.000
    6801 POLY   1 POL  CG    CG    0.000  1.000
    6802 POLY   1 POL  CG    CG    0.000  1.000
    6803 POLY   1 POL  CG    CG    0.000  1.000
    6804 POLY   1 POL  CG    CG    0.000  1.000
    6805 POLY   1 POL  CG    CG    0.000  1.000
    6806 POLY   1 POL  CG    CG    0.000  1.000
    6807 POLY   1 POL  CG    CG    0.000  1.000
    6808 POLY   1 POL  CG    CG    0.000  1.000
    6809 POLY   1 POL  CG    CG    0.000  1.000
    6810 POLY   1 POL  CG    CG    0.000  1.000
    6811 POLY   1 POL  CG    CG    0.000  1.000
    6812 POLY   1 POL  CG    CG    0.000  1.000
    6813 POLY   1 POL  CG    CG    0.000  1.000
    6814 POLY   1 POL  CG    CG    0.000  1.000
    6815 POLY   1 POL  CG    CG    0.000  1.000
    6816 POLY   1 POL  CG    CG    0.000  1.000
    6817 POLY   1 POL  CG    CG    0.000  1.000
    6818 POLY   1 POL  CG    CG    0.000  1.000
    6819 POLY   1 POL  CG    CG    0.000  1.000
    6820 POLY   1 POL  CG    CG    0.000  1.000
    6821 POLY   1 POL  CG    CG    0.000  1.000
    6822 POLY   1 POL  CG    CG    0.000  1.000
    6823 POLY   1 POL  CG    CG    0.000  1.000
    6824 POLY   1 POL  CG    CG    0.000  1.000
    6825 POLY   1 POL  CG    CG    0.000  1.000
    6826 POLY   1 POL  CG    CG    0.000  1.000
    6827 POLY   1 POL  CG    CG    0.000  1.000
    6828 POLY   1 POL  CG    CG    0.000  1.000
    6829 POLY   1 POL  CG    CG    0.000  1.000
    6830 POLY   1 POL  CG    CG    0.000  1.000
    6831 POLY   1 POL  CG    CG    0.000  1.000
    6832 POLY   1 POL  CG    CG    0.000  1.000
    6833 POLY   1 POL  CG    CG    0.000  1.000
    6834 POLY   1 POL  CG    CG    0.000  1.000
    6835 POLY   1 POL  CG    CG    0.000  1.000
    6836 POLY   1 POL  CG    CG    0.000  1.000
    6837 POLY   1 POL  CG    CG    0.000  1.000
    6838 POLY   1 POL  CG    CG    0.000  1.000
    6839 POLY   1 POL  CG    CG    0.000  1.000
    6840 POLY   1 POL  CG    CG    0.000  1.000
    6841 POLY   1 POL  CG    CG    0.000  1.000
    6842 POLY   1 POL  CG    CG    0.000  1.000
    6843 POLY   1 POL  CG    CG    0.000  1.000
    6844 POLY   1 POL  CG    CG    0.000  1.000
    6845 POLY   1 POL  CG    CG    0.000  1.000
    6846 POLY   1 POL  CG    CG    0.000  1.000
    6847 POLY   1 POL  CG    CG    0.000  1.000
    6848 POLY   1 POL  CG    CG    0.000  1.000
    6849 POLY   1 POL  CG    CG    0.000  1.000
    6850 POLY   1 POL  CG    CG    0.000  1.000
    6851 POLY   1 POL  CG    CG    0.000  1.000
    6852 POLY   1 POL  CG    CG    0.000  1.000
    6853 POLY   1 POL  CG    CG    0.000  1.000
    6854 POLY   1 POL  CG    CG    0.000  1.000
    6855 POLY   1 POL  CG    CG    0.000  1.000
    6856 POLY   1 POL  CG    CG    0.000  1.000
    6857 POLY   1 POL  CG    CG    0.000  1.000
    6858 POLY   1 POL  CG    CG    0.000  1.000
    6859 POLY   1 POL  CG    CG    0.000  1.000
    6860 POLY   1 POL  CG    CG    0.000  1.000
    6861 POLY   1 POL  CG    CG    0.000  1.000
    6862 POLY   1 POL  CG    CG    0.000  1.000
    6863 POLY   1 POL  CG    CG    0.000  1.000
    6864 POLY   1 POL  CG    CG    0.000  1.000
    6865 POLY   1 POL  CG    CG    0.000  1.000
    6866 POLY   1 POL  CG    CG    0.000  1.000
    6867 POLY   1 POL  CG    CG    0.000  1.000
    6868 POLY   1 POL  CG    CG    0.000  1.000
    6869 POLY   1 POL  CG    CG    0.000  1.000
    6870 POLY   1 POL  CG    CG    0.000  1.000
    6871 POLY   1 POL  CG    CG    0.000  1.000
    6872 POLY   1 POL  CG    CG    0.000  1.000
    6873 POLY   1 POL  CG    CG    0.000  1.000
    6874 POLY   1 POL  CG    CG    0.000  1.000
    6875 POLY   1 POL  CG    CG    0.000  1.000
    6876 POLY   1 POL  CG    CG    0.000  1.000
    6877 POLY   1 POL  CG    CG    0.000  1.000
    6878 POLY   1 POL  CG    CG    0.000  1.000
    6879 POLY   1 POL  CG    CG    0.000  1.000
    6880 POLY   1 POL  CG    CG    0.000  1.000
    6881 POLY   1 POL  CG    CG    0.000  1.000
    6882 POLY   1 POL  CG    CG    0.000  1.000
    6883 POLY   1 POL  CG    CG    0.000  1.000
    6884 POLY   1 POL  CG    CG    0.000  1.000
    6885 POLY   1 POL  CG    CG    0.000  1.000
    6886 POLY   1 POL  CG    CG    0.000  1.000
    6887 POLY   1 POL  CG    CG    0.000  1.000
    6888 POLY   1 POL  CG    CG    0.000  1.000
    6889 POLY   1 POL  CG    CG    0.000  1.000
    6890 POLY   1 POL  CG    CG    0.000  1.000
    6891 POLY   1 POL  CG    CG    0.000  1.000
    6892 POLY   1 POL  CG    CG    0.000  1.000
    6893 POLY   1 POL  CG    CG    0.000  1.000
    6894 POLY   1 POL  CG    CG    0.000  1.000
    6895 POLY   1 POL  CG    CG    0.000  1.000
    6896 POLY   1 POL  CG    CG    0.000  1.000
    6897 POLY   1 POL  CG    CG    0.000  1.000
    6898 POLY   1 POL  CG    CG    0.000  1.000
    6899 POLY   1 POL  CG    CG    0.000  1.000
    6900 POLY   1 POL  CG    CG    0.000  1.000
    6901 POLY   1 POL  CG    CG    0.000  1.000
    6902 POLY   1 POL  CG    CG    0.000  1.000
    6903 POLY   1 POL  CG    CG    0.000  1.000
    6904 POLY   1 POL  CG    CG    0.000  1.000
    6905 POLY   1 POL  CG    CG    0.000  1.000
    6906 POLY   1 POL  CG    CG    0.000  1.000
    6907 POLY   1 POL  CG    CG    0.000  1.000
    6908 POLY   1 POL  CG    CG    0.000  1.000
    6909 POLY   1 POL  CG    CG    0.000  1.000
    6910 POLY   1 POL  CG    CG    0.000  1.000
    6911 POLY   1 POL  CG    CG    0.000  1.000
    6912 POLY   1 POL  CG    CG    0.000  1.000
    6913 POLY   1 POL  CG    CG    0.000  1.000
    6914 POLY   1 POL  CG    CG    0.000  1.000
    6915 POLY   1 POL  CG    CG    0.000  1.000
    6916 POLY   1 POL  CG    CG    0.000  1.000
    6917 POLY   1 POL  CG    CG    0.000  1.000
    6918 POLY   1 POL  CG    CG    0.000  1.000
    6919 POLY   1 POL  CG    CG    0.000  1.000
    6920 POLY   1 POL  CG    CG    0.000  1.000
    6921 POLY   1 POL  CG    CG    0.000  1.000
    6922 POLY   1 POL  CG    CG    0.000  1.000
    6923 POLY   1 POL  CG    CG    0.000  1.000
    6924 POLY   1 POL  CG    CG    0.000  1.000
    6925 POLY   1 POL  CG    CG    0.000  1.000
    6926 POLY   1 POL  CG    CG    0.000  1.000
    6927 POLY   1 POL  CG    CG    0.000  1.000
    6928 POLY   1 POL  CG    CG    0.000  1.000
    6929 POLY   1 POL  CG    CG    0.000  1.000
    6930 POLY   1 POL  CG    CG    0.000  1.000
    6931 POLY   1 POL  CG    CG    0.000  1.000
    6932 POLY   1 POL  CG    CG    0.000  1.000
    6933 POLY   1 POL  CG    CG    0.000  1.000
    6934 POLY   1 POL  CG    CG    0.000  1.000
    6935 POLY   1 POL  CG    CG    0.000  1.000
    6936 POLY   1 POL  CG    CG    0.000  1.000
    6937 POLY   1 POL  CG    CG    0.000  1.000
    6938 POLY   1 POL  CG    CG    0.000  1.000
    6939 POLY   1 POL  CG    CG    0.000  1.000
    6940 POLY   1 POL  CG    CG    0.000  1.000
    6941 POLY   1 POL  CG    CG    0.000  1.000
    6942 POLY   1 POL  CG    CG    0.000  1.000
    6943 POLY   1 POL  CG    CG    0.000  1.000
    6944 POLY   1 POL  CG    CG    0.000  1.000
    6945 POLY   1 POL  CG    CG    0.000  1.000
    6946 POLY   1 POL  CG    CG    0.000  1.000
    6947 POLY   1 POL  CG    CG    0.000  1.000
    6948 POLY   1 POL  CG    CG    0.000  1.000
    6949 POLY   1 POL  CG    CG    0.000  1.000
    6950 POLY   1 POL  CG    CG    0.000  1.000
    6951 POLY   1 POL  CG    CG    0.000  1.000
    6952 POLY   1 POL  CG    CG    0.000  1.000
    6953 POLY   1 POL  CG    CG    0.000  1.000
    6954 POLY   1 POL  CG    CG    0.000  1.000
    6955 POLY   1 POL  CG    CG    0.000  1.000
    6956 POLY   1 POL  CG    CG    0.000  1.000
    6957 POLY   1 POL  CG    CG    0.000  1.000
    6958 POLY   1 POL  CG    CG    0.000  1.000
    6959 POLY   1 POL  CG    CG    0.000  1.000
    6960 POLY   1 POL  CG    CG    0.000  1.000
    6961 POLY   1 POL  CG    CG    0.000  1.000
    6962 POLY   1 POL  CG    CG    0.000  1.000
    6963 POLY   1 POL  CG    CG    0.000  1.000
    6964 POLY   1 POL  CG    CG    0.000  1.000
    6965 POLY   1 POL  CG    CG    0.000  1.000
    6966 POLY   1 POL  CG    CG    0.000  1.000
    6967 POLY   1 POL  CG    CG    0.000  1.000
    6968 POLY   1 POL  CG    CG    0.000  1.000
    6969 POLY   1 POL  CG    CG    0.000  1.000
    6970 POLY   1 POL  CG    CG    0.000  1.000
    6971 POLY   1 POL  CG    CG    0.000  1.000
    6972 POLY   1 POL  CG    CG    0.000  1.000
    6973 POLY   1 POL  CG    CG    0.000  1.000
    6974 POLY   1 POL  CG    CG    0.000  1.000
    6975 POLY   1 POL  CG    CG    0.000  1.000
    6976 POLY   1 POL  CG    CG    0.000  1.000
    6977 POLY   1 POL  CG    CG    0.000  1.000
    6978 POLY   1 POL  CG    CG    0.000  1.000
    6979 POLY   1 POL  CG    CG    0.000  1.000
    6980 POLY   1 POL  CG    CG    0.000  1.000
    6981 POLY   1 POL  CG    CG    0.000  1.000
    6982 POLY   1 POL  CG    CG    0.000  1.000
    6983 POLY   1 POL  CG    CG    0.000  1.000
    6984 POLY   1 POL  CG    CG    0.000  1.000
    6985 POLY   1 POL  CG    CG    0.000  1.000
    6986 POLY   1 POL  CG    CG    0.000  1.000
    6987 POLY   1 POL  CG    CG    0.000  1.000
    6988 POLY   1 POL  CG    CG    0.000  1.000
    6989 POLY   1 POL  CG    CG    0.000  1.000
    6990 POLY   1 POL  CG    CG    0.000  1.000
    6991 POLY   1 POL  CG    CG    0.000  1.000
    6992 POLY   1 POL  CG    CG    0.000  1.000
    6993 POLY   1 POL  CG    CG    0.000  1.000
    6994 POLY   1 POL  CG    CG    0.000  1.000
    6995 POLY   1 POL  CG    CG    0.000  1.000
    6996 POLY   1 POL  CG    CG    0.000  1.000
    6997 POLY   1 POL  CG    CG    0.000  1.000
    6998 POLY   1 POL  CG    CG    0.000  1.000
    6999 POLY   1 POL  CG    CG    0.000  1.000
    7000 POLY   1 POL  CG    CG    0.000  1.000
    7001 POLY   1 POL  CG    CG    0.000  1.000
    7002 POLY   1 POL  CG    CG    0.000  1.000
    7003 POLY   1 POL  CG    CG    0.000  1.000
    7004 POLY   1 POL  CG    CG    0.000  1.000
    7005 POLY   1 POL  CG    CG    0.000  1.000
    7006 POLY   1 POL  CG    CG    0.000  1.000
    7007 POLY   1 POL  CG    CG    0.000  1.000
    7008 POLY   1 POL  CG    CG    0.000  1.000
    7009 POLY   1 POL  CG    CG    0.000  1.000
    7010 POLY   1 POL  CG    CG    0.000  1.000
    7011 POLY   1 POL  CG    CG    0.000  1.000
    7012 POLY   1 POL  CG    CG    0.000  1.000
    7013 POLY   1 POL  CG    CG    0.000  1.000
    7014 POLY   1 POL  CG    CG    0.000  1.000
    7015 POLY   1 POL  CG    CG    0.000  1.000
    7016 POLY   1 POL  CG    CG    0.000  1.000
    7017 POLY   1 POL  CG    CG    0.000  1.000
    7018 POLY   1 POL  CG    CG    0.000  1.000
    7019 POLY   1 POL  CG    CG    0.000  1.000
    7020 POLY   1 POL  CG    CG    0.000  1.000
    7021 POLY   1 POL  CG    CG    0.000  1.000
    7022 POLY   1 POL  CG    CG    0.000  1.000
    7023 POLY   1 POL  CG    CG    0.000  1.000
    7024 POLY   1 POL  CG    CG    0.000  1.000
    7025 POLY   1 POL  CG    CG    0.000  1.000
    7026 POLY   1 POL  CG    CG    0.000  1.000
    7027 POLY   1 POL  CG    CG    0.000  1.000
    7028 POLY   1 POL  CG    CG    0.000  1.000
    7029 POLY   1 POL  CG    CG    0.000  1.000
    7030 POLY   1 POL  CG    CG    0.000  1.000
    7031 POLY   1 POL  CG    CG    0.000  1.000
    7032 POLY   1 POL  CG    CG    0.000  1.000
    7033 POLY   1 POL  CG    CG    0.000  1.000
    7034 POLY   1 POL  CG    CG    0.000  1.000
    7035 POLY   1 POL  CG    CG    0.000  1.000
    7036 POLY   1 POL  CG    CG    0.000  1.000
    7037 POLY   1 POL  CG    CG    0.000  1.000
    7038 POLY   1 POL  CG    CG    0.000  1.000
    7039 POLY   1 POL  CG    CG    0.000  1.000
    7040 POLY   1 POL  CG    CG    0.000  1.000
    7041 POLY   1 POL  CG    CG    0.000  1.000
    7042 POLY   1 POL  CG    CG    0.000  1.000
    7043 POLY   1 POL  CG    CG    0.000  1.000
    7044 POLY   1 POL  CG    CG    0.000  1.000
    7045 POLY   1 POL  CG    CG    0.000  1.000
    7046 POLY   1 POL  CG    CG    0.000  1.000
    7047 POLY   1 POL  CG    CG    0.000  1.000
    7048 POLY   1 POL  CG    CG    0.000  1.000
    7049 POLY   1 POL  CG    CG    0.000  1.000
    7050 POLY   1 POL  CG    CG    0.000  1.000
    7051 POLY   1 POL  CG    CG    0.000  1.000
    7052 POLY   1 POL  CG    CG    0.000  1.000
    7053 POLY   1 POL  CG    CG    0.000  1.000
    7054 POLY   1 POL  CG    CG    0.000  1.000
    7055 POLY   1 POL  CG    CG    0.000  1.000
    7056 POLY   1 POL  CG    CG    0.000  1.000
    7057 POLY   1 POL  CG    CG    0.000  1.000
    7058 POLY   1 POL  CG    CG    0.000  1.000
    7059 POLY   1 POL  CG    CG    0.000  1.000
    7060 POLY   1 POL  CG    CG    0.000  1.000
    7061 POLY   1 POL  CG    CG    0.000  1.000
    7062 POLY   1 POL  CG    CG    0.000  1.000
    7063 POLY   1 POL  CG    CG    0.000  1.000
    7064 POLY   1 POL  CG    CG    0.000  1.000
    7065 POLY   1 POL  CG    CG    0.000  1.000
    7066 POLY   1 POL  CG    CG    0.000  1.000
    7067 POLY   1 POL  CG    CG    0.000  1.000
    7068 POLY   1 POL  CG    CG    0.000  1.000
    7069 POLY   1 POL  CG    CG    0.000  1.000
    7070 POLY   1 POL  CG    CG    0.000  1.000
    7071 POLY   1 POL  CG    CG    0.000  1.000
    7072 POLY   1 POL  CG    CG    0.000  1.000
    7073 POLY   1 POL  CG    CG    0.000  1.000
    7074 POLY   1 POL  CG    CG    0.000  1.000
    7075 POLY   1 POL  CG    CG    0.000  1.000
    7076 POLY   1 POL  CG    CG    0.000  1.000
    7077 POLY   1 POL  CG    CG    0.000  1.000
    7078 POLY   1 POL  CG    CG    0.000  1.000
    7079 POLY   1 POL  CG    CG    0.000  1.000
    7080 POLY   1 POL  CG    CG    0.000  1.000
    7081 POLY   1 POL  CG    CG    0.000  1.000
    7082 POLY   1 POL  CG    CG    0.000  1.000
    7083 POLY   1 POL  CG    CG    0.000  1.000
    7084 POLY   1 POL  CG    CG    0.000  1.000
    7085 POLY   1 POL  CG    CG    0.000  1.000
    7086 POLY   1 POL  CG    CG    0.000  1.000
    7087 POLY   1 POL  CG    CG    0.000  1.000
    7088 POLY   1 POL  CG    CG    0.000  1.000
    7089 POLY   1 POL  CG    CG    0.000  1.000
    7090 POLY   1 POL  CG    CG    0.000  1.000
    7091 POLY   1 POL  CG    CG    0.000  1.000
    7092 POLY   1 POL  CG    CG    0.000  1.000
    7093 POLY   1 POL  CG    CG    0.000  1.000
    7094 POLY   1 POL  CG    CG    0.000  1.000
    7095 POLY   1 POL  CG    CG    0.000  1.000
    7096 POLY   1 POL  CG    CG    0.000  1.000
    7097 POLY   1 POL  CG    CG    0.000  1.000
    7098 POLY   1 POL  CG    CG    0.000  1.000
    7099 POLY   1 POL  CG    CG    0.000  1.000
    7100 POLY   1 POL  CG    CG    0.000  1.000
    7101 POLY   1 POL  CG    CG    0.000  1.000
    7102 POLY   1 POL  CG    CG    0.000  1.000
    7103 POLY   1 POL  CG    CG    0.000  1.000
    7104 POLY   1 POL  CG    CG    0.000  1.000
    7105 POLY   1 POL  CG    CG    0.000  1.000
    7106 POLY   1 POL  CG    CG    0.000  1.000
    7107 POLY   1 POL  CG    CG    0.000  1.000
    7108 POLY   1 POL  CG    CG    0.000  1.000
    7109 POLY   1 POL  CG    CG    0.000  1.000
    7110 POLY   1 POL  CG    CG    0.000  1.000
    7111 POLY   1 POL  CG    CG    0.000  1.000
    7112 POLY   1 POL  CG    CG    0.000  1.000
    7113 POLY   1 POL  CG    CG    0.000  1.000
    7114 POLY   1 POL  CG    CG    0.000  1.000
    7115 POLY   1 POL  CG    CG    0.000  1.000
    7116 POLY   1 POL  CG    CG    0.000  1.000
    7117 POLY   1 POL  CG    CG    0.000  1.000
    7118 POLY   1 POL  CG    CG    0.000  1.000
    7119 POLY   1 POL  CG    CG    0.000  1.000
    7120 POLY   1 POL  CG    CG    0.000  1.000
    7121 POLY   1 POL  CG    CG    0.000  1.000
    7122 POLY   1 POL  CG    CG    0.000  1.000
    7123 POLY   1 POL  CG    CG    0.000  1.000
    7124 POLY   1 POL  CG    CG    0.000  1.000
    7125 POLY   1 POL  CG    CG    0.000  1.000
    7126 POLY   1 POL  CG    CG    0.000  1.000
    7127 POLY   1 POL  CG    CG    0.000  1.000
    7128 POLY   1 POL  CG    CG    0.000  1.000
    7129 POLY   1 POL  CG    CG    0.000  1.000
    7130 POLY   1 POL  CG    CG    0.000  1.000
    7131 POLY   1 POL  CG    CG    0.000  1.000
    7132 POLY   1 POL  CG    CG    0.000  1.000
    7133 POLY   1 POL  CG    CG    0.000  1.000
    7134 POLY   1 POL  CG    CG    0.000  1.000
    7135 POLY   1 POL  CG    CG    0.000  1.000
    7136 POLY   1 POL  CG    CG    0.000  1.000
    7137 POLY   1 POL  CG    CG    0.000  1.000
    7138 POLY   1 POL  CG    CG    0.000  1.000
    7139 POLY   1 POL  CG    CG    0.000  1.000
    7140 POLY   1 POL  CG    CG    0.000  1.000
    7141 POLY   1 POL  CG    CG    0.000  1.000
    7142 POLY   1 POL  CG    CG    0.000  1.000
    7143 POLY   1 POL  CG    CG    0.000  1.000
    7144 POLY   1 POL  CG    CG    0.000  1.000
    7145 POLY   1 POL  CG    CG    0.000  1.000
    7146 POLY   1 POL  CG    CG    0.000  1.000
    7147 POLY   1 POL  CG    CG    0.000  1.000
    7148 POLY   1 POL  CG    CG    0.000  1.000
    7149 POLY   1 POL  CG    CG    0.000  1.000
    7150 POLY   1 POL  CG    CG    0.000  1.000
    7151 POLY   1 POL  CG    CG    0.000  1.000
    7152 POLY   1 POL  CG    CG    0.000  1.000
    7153 POLY   1 POL  CG    CG    0.000  1.000
    7154 POLY   1 POL  CG    CG    0.000  1.000
    7155 POLY   1 POL  CG    CG    0.000  1.000
    7156 POLY   1 POL  CG    CG    0.000  1.000
    7157 POLY   1 POL  CG    CG    0.000  1.000
    7158 POLY   1 POL  CG    CG    0.000  1.000
    7159 POLY   1 POL  CG    CG    0.000  1.000
    7160 POLY   1 POL  CG    CG    0.000  1.000
    7161 POLY   1 POL  CG    CG    0.000  1.000
    7162 POLY   1 POL  CG    CG    0.000  1.000
    7163 POLY   1 POL  CG    CG    0.000  1.000
    7164 POLY   1 POL  CG    CG    0.000  1.000
    7165 POLY   1 POL  CG    CG    0.000  1.000
    7166 POLY   1 POL  CG    CG    0.000  1.000
    7167 POLY   1 POL  CG    CG    0.000  1.000
    7168 POLY   1 POL  CG    CG    0.000  1.000
    7169 POLY   1 POL  CG    CG    0.000  1.000
    7170 POLY   1 POL  CG    CG    0.000  1.000
    7171 POLY   1 POL  CG    CG    0.000  1.000
    7172 POLY   1 POL  CG    CG    0.000  1.000
    7173 POLY   1 POL  CG    CG    0.000  1.000
    7174 POLY   1 POL  CG    CG    0.000  1.000
    7175 POLY   1 POL  CG    CG    0.000  1.000
    7176 POLY   1 POL  CG    CG    0.000  1.000
    7177 POLY   1 POL  CG    CG    0.000  1.000
    7178 POLY   1 POL  CG    CG    0.000  1.000
    7179 POLY   1 POL  CG    CG    0.000  1.000
    7180 POLY   1 POL  CG    CG    0.000  1.000
    7181 POLY   1 POL  CG    CG    0.000  1.000
    7182 POLY   1 POL  CG    CG    0.000  1.000
    7183 POLY   1 POL  CG    CG    0.000  1.000
    7184 POLY   1 POL  CG    CG    0.000  1.000
    7185 POLY   1 POL  CG    CG    0.000  1.000
    7186 POLY   1 POL  CG    CG    0.000  1.000
    7187 POLY   1 POL  CG    CG    0.000  1.000
    7188 POLY   1 POL  CG    CG    0.000  1.000
    7189 POLY   1 POL  CG    CG    0.000  1.000
    7190 POLY   1 POL  CG    CG    0.000  1.000
    7191 POLY   1 POL  CG    CG    0.000  1.000
    7192 POLY   1 POL  CG    CG    0.000  1.000
    7193 POLY   1 POL  CG    CG    0.000  1.000
    7194 POLY   1 POL  CG    CG    0.000  1.000
    7195 POLY   1 POL  CG    CG    0.000  1.000
    7196 POLY   1 POL  CG    CG    0.000  1.000
    7197 POLY   1 POL  CG    CG    0.000  1.000
    7198 POLY   1 POL  CG    CG    0.000  1.000
    7199 POLY   1 POL  CG    CG    0.000  1.000
    7200 POLY   1 POL  CG    CG    0.000  1.000
    7201 POLY   1 POL  CG    CG    0.000  1.000
    7202 POLY   1 POL  CG    CG    0.000  1.000
    7203 POLY   1 POL  CG    CG    0.000  1.000
    7204 POLY   1 POL  CG    CG    0.000  1.000
    7205 POLY   1 POL  CG    CG    0.000  1.000
    7206 POLY   1 POL  CG    CG    0.000  1.000
    7207 POLY   1 POL  CG    CG    0.000  1.000
    7208 POLY   1 POL  CG    CG    0.000  1.000
    7209 POLY   1 POL  CG    CG    0.000  1.000
    7210 POLY   1 POL  CG    CG    0.000  1.000
    7211 POLY   1 POL  CG    CG    0.000  1.000
    7212 POLY   1 POL  CG    CG    0.000  1.000
    7213 POLY   1 POL  CG    CG    0.000  1.000
    7214 POLY   1 POL  CG    CG    0.000  1.000
    7215 POLY   1 POL  CG    CG    0.000  1.000
    7216 POLY   1 POL  CG    CG    0.000  1.000
    7217 POLY   1 POL  CG    CG    0.000  1.000
    7218 POLY   1 POL  CG    CG    0.000  1.000
    7219 POLY   1 POL  CG    CG    0.000  1.000
    7220 POLY   1 POL  CG    CG    0.000  1.000
    7221 POLY   1 POL  CG    CG    0.000  1.000
    7222 POLY   1 POL  CG    CG    0.000  1.000
    7223 POLY   1 POL  CG    CG    0.000  1.000
    7224 POLY   1 POL  CG    CG    0.000  1.000
    7225 POLY   1 POL  CG    CG    0.000  1.000
    7226 POLY   1 POL  CG    CG    0.000  1.000
    7227 POLY   1 POL  CG    CG    0.000  1.000
    7228 POLY   1 POL  CG    CG    0.000  1.000
    7229 POLY   1 POL  CG    CG    0.000  1.000
    7230 POLY   1 POL  CG    CG    0.000  1.000
    7231 POLY   1 POL  CG    CG    0.000  1.000
    7232 POLY   1 POL  CG    CG    0.000  1.000
    7233 POLY   1 POL  CG    CG    0.000  1.000
    7234 POLY   1 POL  CG    CG    0.000  1.000
    7235 POLY   1 POL  CG    CG    0.000  1.000
    7236 POLY   1 POL  CG    CG    0.000  1.000
    7237 POLY   1 POL  CG    CG    0.000  1.000
    7238 POLY   1 POL  CG    CG    0.000  1.000
    7239 POLY   1 POL  CG    CG    0.000  1.000
    7240 POLY   1 POL  CG    CG    0.000  1.000
    7241 POLY   1 POL  CG    CG    0.000  1.000
    7242 POLY   1 POL  CG    CG    0.000  1.000
    7243 POLY   1 POL  CG    CG    0.000  1.000
    7244 POLY   1 POL  CG    CG    0.000  1.000
    7245 POLY   1 POL  CG    CG    0.000  1.000
    7246 POLY   1 POL  CG    CG    0.000  1.000
    7247 POLY   1 POL  CG    CG    0.000  1.000
    7248 POLY   1 POL  CG    CG    0.000  1.000
    7249 POLY   1 POL  CG    CG    0.000  1.000
    7250 POLY   1 POL  CG    CG    0.000  1.000
    7251 POLY   1 POL  CG    CG    0.000  1.000
    7252 POLY   1 POL  CG    CG    0.000  1.000
    7253 POLY   1 POL  CG    CG    0.000  1.000
    7254 POLY   1 POL  CG    CG    0.000  1.000
    7255 POLY   1 POL  CG    CG    0.000  1.000
    7256 POLY   1 POL  CG    CG    0.000  1.000
    7257 POLY   1 POL  CG    CG    0.000  1.000
    7258 POLY   1 POL  CG    CG    0.000  1.000
    7259 POLY   1 POL  CG    CG    0.000  1.000
    7260 POLY   1 POL  CG    CG    0.000  1.000
    7261 POLY   1 POL  CG    CG    0.000  1.000
    7262 POLY   1 POL  CG    CG    0.000  1.000
    7263 POLY   1 POL  CG    CG    0.000  1.000
    7264 POLY   1 POL  CG    CG    0.000  1.000
    7265 POLY   1 POL  CG    CG    0.000  1.000
    7266 POLY   1 POL  CG    CG    0.000  1.000
    7267 POLY   1 POL  CG    CG    0.000  1.000
    7268 POLY   1 POL  CG    CG    0.000  1.000
    7269 POLY   1 POL  CG    CG    0.000  1.000
    7270 POLY   1 POL  CG    CG    0.000  1.000
    7271 POLY   1 POL  CG    CG    0.000  1.000
    7272 POLY   1 POL  CG    CG    0.000  1.000
    7273 POLY   1 POL  CG    CG    0.000  1.000
    7274 POLY   1 POL  CG    CG    0.000  1.000
    7275 POLY   1 POL  CG    CG    0.000  1.000
    7276 POLY   1 POL  CG    CG    0.000  1.000
    7277 POLY   1 POL  CG    CG    0.000  1.000
    7278 POLY   1 POL  CG    CG    0.000  1.000
    7279 POLY   1 POL  CG    CG    0.000  1.000
    7280 POLY   1 POL  CG    CG    0.000  1.000
    7281 POLY   1 POL  CG    CG    0.000  1.000
    7282 POLY   1 POL  CG    CG    0.000  1.000
    7283 POLY   1 POL  CG    CG    0.000  1.000
    7284 POLY   1 POL  CG    CG    0.000  1.000
    7285 POLY   1 POL  CG    CG    0.000  1.000
    7286 POLY   1 POL  CG    CG    0.000  1.000
    7287 POLY   1 POL  CG    CG    0.000  1.000
    7288 POLY   1 POL  CG    CG    0.000  1.000
    7289 POLY   1 POL  CG    CG    0.000  1.000
    7290 POLY   1 POL  CG    CG    0.000  1.000
    7291 POLY   1 POL  CG    CG    0.000  1.000
    7292 POLY   1 POL  CG    CG    0.000  1.000
    7293 POLY   1 POL  CG    CG    0.000  1.000
    7294 POLY   1 POL  CG    CG    0.000  1.000
    7295 POLY   1 POL  CG    CG    0.000  1.000
    7296 POLY   1 POL  CG    CG    0.000  1.000
    7297 POLY   1 POL  CG    CG    0.000  1.000
    7298 POLY   1 POL  CG    CG    0.000  1.000
    7299 POLY   1 POL  CG    CG    0.000  1.000
    7300 POLY   1 POL  CG    CG    0.000  1.000
    7301 POLY   1 POL  CG    CG    0.000  1.000
    7302 POLY   1 POL  CG    CG    0.000  1.000
    7303 POLY   1 POL  CG    CG    0.000  1.000
    7304 POLY   1 POL  CG    CG    0.000  1.000
    7305 POLY   1 POL  CG    CG    0.000  1.000
    7306 POLY   1 POL  CG    CG    0.000  1.000
    7307 POLY   1 POL  CG    CG    0.000  1.000
    7308 POLY   1 POL  CG    CG    0.000  1.000
    7309 POLY   1 POL  CG    CG    0.000  1.000
    7310 POLY   1 POL  CG    CG    0.000  1.000
    7311 POLY   1 POL  CG    CG    0.000  1.000
    7312 POLY   1 POL  CG    CG    0.000  1.000
    7313 POLY   1 POL  CG    CG    0.000  1.000
    7314 POLY   1 POL  CG    CG    0.000  1.000
    7315 POLY   1 POL  CG    CG    0.000  1.000
    7316 POLY   1 POL  CG    CG    0.000  1.000
    7317 POLY   1 POL  CG    CG    0.000  1.000
    7318 POLY   1 POL  CG    CG    0.000  1.000
    7319 POLY   1 POL  CG    CG    0.000  1.000
    7320 POLY   1 POL  CG    CG    0.000  1.000
    7321 POLY   1 POL  CG    CG    0.000  1.000
    7322 POLY   1 POL  CG    CG    0.000  1.000
    7323 POLY   1 POL  CG    CG    0.000  1.000
    7324 POLY   1 POL  CG    CG    0.000  1.000
    7325 POLY   1 POL  CG    CG    0.000  1.000
    7326 POLY   1 POL  CG    CG    0.000  1.000
    7327 POLY   1 POL  CG    CG    0.000  1.000
    7328 POLY   1 POL  CG    CG    0.000  1.000
    7329 POLY   1 POL  CG    CG    0.000  1.000
    7330 POLY   1 POL  CG    CG    0.000  1.000
    7331 POLY   1 POL  CG    CG    0.000  1.000
    7332 POLY   1 POL  CG    CG    0.000  1.000
    7333 POLY   1 POL  CG    CG    0.000  1.000
    7334 POLY   1 POL  CG    CG    0.000  1.000
    7335 POLY   1 POL  CG    CG    0.000  1.000
    7336 POLY   1 POL  CG    CG    0.000  1.000
    7337 POLY   1 POL  CG    CG    0.000  1.000
    7338 POLY   1 POL  CG    CG    0.000  1.000
    7339 POLY   1 POL  CG    CG    0.000  1.000
    7340 POLY   1 POL  CG    CG    0.000  1.000
    7341 POLY   1 POL  CG    CG    0.000  1.000
    7342 POLY   1 POL  CG    CG    0.000  1.000
    7343 POLY   1 POL  CG    CG    0.000  1.000
    7344 POLY   1 POL  CG    CG    0.000  1.000
    7345 POLY   1 POL  CG    CG    0.000  1.000
    7346 POLY   1 POL  CG    CG    0.000  1.000
    7347 POLY   1 POL  CG    CG    0.000  1.000
    7348 POLY   1 POL  CG    CG    0.000  1.000
    7349 POLY   1 POL  CG    CG    0.000  1.000
    7350 POLY   1 POL  CG    CG    0.000  1.000
    7351 POLY   1 POL  CG    CG    0.000  1.000
    7352 POLY   1 POL  CG    CG    0.000  1.000
    7353 POLY   1 POL  CG    CG    0.000  1.000
    7354 POLY   1 POL  CG    CG    0.000  1.000
    7355 POLY   1 POL  CG    CG    0.000  1.000
    7356 POLY   1 POL  CG    CG    0.000  1.000
    7357 POLY   1 POL  CG    CG    0.000  1.000
    7358 POLY   1 POL  CG    CG    0.000  1.000
    7359 POLY   1 POL  CG    CG    0.000  1.000
    7360 POLY   1 POL  CG    CG    0.000  1.000
    7361 POLY   1 POL  CG    CG    0.000  1.000
    7362 POLY   1 POL  CG    CG    0.000  1.000
    7363 POLY   1 POL  CG    CG    0.000  1.000
    7364 POLY   1 POL  CG    CG    0.000  1.000
    7365 POLY   1 POL  CG    CG    0.000  1.000
    7366 POLY   1 POL  CG    CG    0.000  1.000
    7367 POLY   1 POL  CG    CG    0.000  1.000
    7368 POLY   1 POL  CG    CG    0.000  1.000
    7369 POLY   1 POL  CG    CG    0.000  1.000
    7370 POLY   1 POL  CG    CG    0.000  1.000
    7371 POLY   1 POL  CG    CG    0.000  1.000
    7372 POLY   1 POL  CG    CG    0.000  1.000
    7373 POLY   1 POL  CG    CG    0.000  1.000
    7374 POLY   1 POL  CG    CG    0.000  1.000
    7375 POLY   1 POL  CG    CG    0.000  1.000
    7376 POLY   1 POL  CG    CG    0.000  1.000
    7377 POLY   1 POL  CG    CG    0.000  1.000
    7378 POLY   1 POL  CG    CG    0.000  1.000
    7379 POLY   1 POL  CG    CG    0.000  1.000
    7380 POLY   1 POL  CG    CG    0.000  1.000
    7381 POLY   1 POL  CG    CG    0.000  1.000
    7382 POLY   1 POL  CG    CG    0.000  1.000
    7383 POLY   1 POL  CG    CG    0.000  1.000
    7384 POLY   1 POL  CG    CG    0.000  1.000
    7385 POLY   1 POL  CG    CG    0.000  1.000
    7386 POLY   1 POL  CG    CG    0.000  1.000
    7387 POLY   1 POL  CG    CG    0.000  1.000
    7388 POLY   1 POL  CG    CG    0.000  1.000
    7389 POLY   1 POL  CG    CG    0.000  1.000
    7390 POLY   1 POL  CG    CG    0.000  1.000
    7391 POLY   1 POL  CG    CG    0.000  1.000
    7392 POLY   1 POL  CG    CG    0.000  1.000
    7393 POLY   1 POL  CG    CG    0.000  1.000
    7394 POLY   1 POL  CG    CG    0.000  1.000
    7395 POLY   1 POL  CG    CG    0.000  1.000
    7396 POLY   1 POL  CG    CG    0.000  1.000
    7397 POLY   1 POL  CG    CG    0.000  1.000
    7398 POLY   1 POL  CG    CG    0.000  1.000
    7399 POLY   1 POL  CG    CG    0.000  1.000
    7400 POLY   1 POL  CG    CG    0.000  1.000
    7401 POLY   1 POL  CG    CG    0.000  1.000
    7402 POLY   1 POL  CG    CG    0.000  1.000
    7403 POLY   1 POL  CG    CG    0.000  1.000
    7404 POLY   1 POL  CG    CG    0.000  1.000
    7405 POLY   1 POL  CG    CG    0.000  1.000
    7406 POLY   1 POL  CG    CG    0.000  1.000
    7407 POLY   1 POL  CG    CG    0.000  1.000
    7408 POLY   1 POL  CG    CG    0.000  1.000
    7409 POLY   1 POL  CG    CG    0.000  1.000
    7410 POLY   1 POL  CG    CG    0.000  1.000
    7411 POLY   1 POL  CG    CG    0.000  1.000
    7412 POLY   1 POL  CG    CG    0.000  1.000
    7413 POLY   1 POL  CG    CG    0.000  1.000
    7414 POLY   1 POL  CG    CG    0.000  1.000
    7415 POLY   1 POL  CG    CG    0.000  1.000
    7416 POLY   1 POL  CG    CG    0.000  1.000
    7417 POLY   1 POL  CG    CG    0.000  1.000
    7418 POLY   1 POL  CG    CG    0.000  1.000
    7419 POLY   1 POL  CG    CG    0.000  1.000
    7420 POLY   1 POL  CG    CG    0.000  1.000
    7421 POLY   1 POL  CG    CG    0.000  1.000
    7422 POLY   1 POL  CG    CG    0.000  1.000
    7423 POLY   1 POL  CG    CG    0.000  1.000
    7424 POLY   1 POL  CG    CG    0.000  1.000
    7425 POLY   1 POL  CG    CG    0.000  1.000
    7426 POLY   1 POL  CG    CG    0.000  1.000
    7427 POLY   1 POL  CG    CG    0.000  1.000
    7428 POLY   1 POL  CG    CG    0.000  1.000
    7429 POLY   1 POL  CG    CG    0.000  1.000
    7430 POLY   1 POL  CG    CG    0.000  1.000
    7431 POLY   1 POL  CG    CG    0.000  1.000
    7432 POLY   1 POL  CG    CG    0.000  1.000
    7433 POLY   1 POL  CG    CG    0.000  1.000
    7434 POLY   1 POL  CG    CG    0.000  1.000
    7435 POLY   1 POL  CG    CG    0.000  1.000
    7436 POLY   1 POL  CG    CG    0.000  1.000
    7437 POLY   1 POL  CG    CG    0.000  1.000
    7438 POLY   1 POL  CG    CG    0.000  1.000
    7439 POLY   1 POL  CG    CG    0.000  1.000
    7440 POLY   1 POL  CG    CG    0.000  1.000
    7441 POLY   1 POL  CG    CG    0.000  1.000
    7442 POLY   1 POL  CG    CG    0.000  1.000
    7443 POLY   1 POL  CG    CG    0.000  1.000
    7444 POLY   1 POL  CG    CG    0.000  1.000
    7445 POLY   1 POL  CG    CG    0.000  1.000
    7446 POLY   1 POL  CG    CG    0.000  1.000
    7447 POLY   1 POL  CG    CG    0.000  1.000
    7448 POLY   1 POL  CG    CG    0.000  1.000
    7449 POLY   1 POL  CG    CG    0.000  1.000
    7450 POLY   1 POL  CG    CG    0.000  1.000
    7451 POLY   1 POL  CG    CG    0.000  1.000
    7452 POLY   1 POL  CG    CG    0.000  1.000
    7453 POLY   1 POL  CG    CG    0.000  1.000
    7454 POLY   1 POL  CG    CG    0.000  1.000
    7455 POLY   1 POL  CG    CG    0.000  1.000
    7456 POLY   1 POL  CG    CG    0.000  1.000
    7457 POLY   1 POL  CG    CG    0.000  1.000
    7458 POLY   1 POL  CG    CG    0.000  1.000
    7459 POLY   1 POL  CG    CG    0.000  1.000
    7460 POLY   1 POL  CG    CG    0.000  1.000
    7461 POLY   1 POL  CG    CG    0.000  1.000
    7462 POLY   1 POL  CG    CG    0.000  1.000
    7463 POLY   1 POL  CG    CG    0.000  1.000
    7464 POLY   1 POL  CG    CG    0.000  1.000
    7465 POLY   1 POL  CG    CG    0.000  1.000
    7466 POLY   1 POL  CG    CG    0.000  1.000
    7467 POLY   1 POL  CG    CG    0.000  1.000
    7468 POLY   1 POL  CG    CG    0.000  1.000
    7469 POLY   1 POL  CG    CG    0.000  1.000
    7470 POLY   1 POL  CG    CG    0.000  1.000
    7471 POLY   1 POL  CG    CG    0.000  1.000
    7472 POLY   1 POL  CG    CG    0.000  1.000
    7473 POLY   1 POL  CG    CG    0.000  1.000
    7474 POLY   1 POL  CG    CG    0.000  1.000
    7475 POLY   1 POL  CG    CG    0.000  1.000
    7476 POLY   1 POL  CG    CG    0.000  1.000
    7477 POLY   1 POL  CG    CG    0.000  1.000
    7478 POLY   1 POL  CG    CG    0.000  1.000
    7479 POLY   1 POL  CG    CG    0.000  1.000
    7480 POLY   1 POL  CG    CG    0.000  1.000
    7481 POLY   1 POL  CG    CG    0.000  1.000
    7482 POLY   1 POL  CG    CG    0.000  1.000
    7483 POLY   1 POL  CG    CG    0.000  1.000
    7484 POLY   1 POL  CG    CG    0.000  1.000
    7485 POLY   1 POL  CG    CG    0.000  1.000
    7486 POLY   1 POL  CG    CG    0.000  1.000
    7487 POLY   1 POL  CG    CG    0.000  1.000
    7488 POLY   1 POL  CG    CG    0.000  1.000
    7489 POLY   1 POL  CG    CG    0.000  1.000
    7490 POLY   1 POL  CG    CG    0.000  1.000
    7491 POLY   1 POL  CG    CG    0.000  1.000
    7492 POLY   1 POL  CG    CG    0.000  1.000
    7493 POLY   1 POL  CG    CG    0.000  1.000
    7494 POLY   1 POL  CG    CG    0.000  1.000
    7495 POLY   1 POL  CG    CG    0.000  1.000
    7496 POLY   1 POL  CG    CG    0.000  1.000
    7497 POLY   1 POL  CG    CG    0.000  1.000
    7498 POLY   1 POL  CG    CG    0.000  1.000
    7499 POLY   1 POL  CG    CG    0.000  1.000
    7500 POLY   1 POL  CG    CG    0.000  1.000
    7501 POLY   1 POL  CG    CG    0.000  1.000
    7502 POLY   1 POL  CG    CG    0.000  1.000
    7503 POLY   1 POL  CG    CG    0.000  1.000
    7504 POLY   1 POL  CG    CG    0.000  1.000
    7505 POLY   1 POL  CG    CG    0.000  1.000
    7506 POLY   1 POL  CG    CG    0.000  1.000
    7507 POLY   1 POL  CG    CG    0.000  1.000
    7508 POLY   1 POL  CG    CG    0.000  1.000
    7509 POLY   1 POL  CG    CG    0.000  1.000
    7510 POLY   1 POL  CG    CG    0.000  1.000
    7511 POLY   1 POL  CG    CG    0.000  1.000
    7512 POLY   1 POL  CG    CG    0.000  1.000
    7513 POLY   1 POL  CG    CG    0.000  1.000
    7514 POLY   1 POL  CG    CG    0.000  1.000
    7515 POLY   1 POL  CG    CG    0.000  1.000
    7516 POLY   1 POL  CG    CG    0.000  1.000
    7517 POLY   1 POL  CG    CG    0.000  1.000
    7518 POLY   1 POL  CG    CG    0.000  1.000
    7519 POLY   1 POL  CG    CG    0.000  1.000
    7520 POLY   1 POL  CG    CG    0.000  1.000
    7521 POLY   1 POL  CG    CG    0.000  1.000
    7522 POLY   1 POL  CG    CG    0.000  1.000
    7523 POLY   1 POL  CG    CG    0.000  1.000
    7524 POLY   1 POL  CG    CG    0.000  1.000
    7525 POLY   1 POL  CG    CG    0.000  1.000
    7526 POLY   1 POL  CG    CG    0.000  1.000
    7527 POLY   1 POL  CG    CG    0.000  1.000
    7528 POLY   1 POL  CG    CG    0.000  1.000
    7529 POLY   1 POL  CG    CG    0.000  1.000
    7530 POLY   1 POL  CG    CG    0.000  1.000
    7531 POLY   1 POL  CG    CG    0.000  1.000
    7532 POLY   1 POL  CG    CG    0.000  1.000
    7533 POLY   1 POL  CG    CG    0.000  1.000
    7534 POLY   1 POL  CG    CG    0.000  1.000
    7535 POLY   1 POL  CG    CG    0.000  1.000
    7536 POLY   1 POL  CG    CG    0.000  1.000
    7537 POLY   1 POL  CG    CG    0.000  1.000
    7538 POLY   1 POL  CG    CG    0.000  1.000
    7539 POLY   1 POL  CG    CG    0.000  1.000
    7540 POLY   1 POL  CG    CG    0.000  1.000
    7541 POLY   1 POL  CG    CG    0.000  1.000
    7542 POLY   1 POL  CG    CG    0.000  1.000
    7543 POLY   1 POL  CG    CG    0.000  1.000
    7544 POLY   1 POL  CG    CG    0.000  1.000
    7545 POLY   1 POL  CG    CG    0.000  1.000
    7546 POLY   1 POL  CG    CG    0.000  1.000
    7547 POLY   1 POL  CG    CG    0.000  1.000
    7548 POLY   1 POL  CG    CG    0.000  1.000
    7549 POLY   1 POL  CG    CG    0.000  1.000
    7550 POLY   1 POL  CG    CG    0.000  1.000
    7551 POLY   1 POL  CG    CG    0.000  1.000
    7552 POLY   1 POL  CG    CG    0.000  1.000
    7553 POLY   1 POL  CG    CG    0.000  1.000
    7554 POLY   1 POL  CG    CG    0.000  1.000
    7555 POLY   1 POL  CG    CG    0.000  1.000
    7556 POLY   1 POL  CG    CG    0.000  1.000
    7557 POLY   1 POL  CG    CG    0.000  1.000
    7558 POLY   1 POL  CG    CG    0.000  1.000
    7559 POLY   1 POL  CG    CG    0.000  1.000
    7560 POLY   1 POL  CG    CG    0.000  1.000
    7561 POLY   1 POL  CG    CG    0.000  1.000
    7562 POLY   1 POL  CG    CG    0.000  1.000
    7563 POLY   1 POL  CG    CG    0.000  1.000
    7564 POLY   1 POL  CG    CG    0.000  1.000
    7565 POLY   1 POL  CG    CG    0.000  1.000
    7566 POLY   1 POL  CG    CG    0.000  1.000
    7567 POLY   1 POL  CG    CG    0.000  1.000
    7568 POLY   1 POL  CG    CG    0.000  1.000
    7569 POLY   1 POL  CG    CG    0.000  1.000
    7570 POLY   1 POL  CG    CG    0.000  1.000
    7571 POLY   1 POL  CG    CG    0.000  1.000
    7572 POLY   1 POL  CG    CG    0.000  1.000
    7573 POLY   1 POL  CG    CG    0.000  1.000
    7574 POLY   1 POL  CG    CG    0.000  1.000
    7575 POLY   1 POL  CG    CG    0.000  1.000
    7576 POLY   1 POL  CG    CG    0.000  1.000
    7577 POLY   1 POL  CG    CG    0.000  1.000
    7578 POLY   1 POL  CG    CG    0.000  1.000
    7579 POLY   1 POL  CG    CG    0.000  1.000
    7580 POLY   1 POL  CG    CG    0.000  1.000
    7581 POLY   1 POL  CG    CG    0.000  1.000
    7582 POLY   1 POL  CG    CG    0.000  1.000
    7583 POLY   1 POL  CG    CG    0.000  1.000
    7584 POLY   1 POL  CG    CG    0.000  1.000
    7585 POLY   1 POL  CG    CG    0.000  1.000
    7586 POLY   1 POL  CG    CG    0.000  1.000
    7587 POLY   1 POL  CG    CG    0.000  1.000
    7588 POLY   1 POL  CG    CG    0.000  1.000
    7589 POLY   1 POL  CG    CG    0.000  1.000
    7590 POLY   1 POL  CG    CG    0.000  1.000
    7591 POLY   1 POL  CG    CG    0.000  1.000
    7592 POLY   1 POL  CG    CG    0.000  1.000
    7593 POLY   1 POL  CG    CG    0.000  1.000
    7594 POLY   1 POL  CG    CG    0.000  1.000
    7595 POLY   1 POL  CG    CG    0.000  1.000
    7596 POLY   1 POL  CG    CG    0.000  1.000
    7597 POLY   1 POL  CG    CG    0.000  1.000
    7598 POLY   1 POL  CG    CG    0.000  1.000
    7599 POLY   1 POL  CG    CG    0.000  1.000
    7600 POLY   1 POL  CG    CG    0.000  1.000
    7601 POLY   1 POL  CG    CG    0.000  1.000
    7602 POLY   1 POL  CG    CG    0.000  1.000
    7603 POLY   1 POL  CG    CG    0.000  1.000
    7604 POLY   1 POL  CG    CG    0.000  1.000
    7605 POLY   1 POL  CG    CG    0.000  1.000
    7606 POLY   1 POL  CG    CG    0.000  1.000
    7607 POLY   1 POL  CG    CG    0.000  1.000
    7608 POLY   1 POL  CG    CG    0.000  1.000
    7609 POLY   1 POL  CG    CG    0.000  1.000
    7610 POLY   1 POL  CG    CG    0.000  1.000
    7611 POLY   1 POL  CG    CG    0.000  1.000
    7612 POLY   1 POL  CG    CG    0.000  1.000
    7613 POLY   1 POL  CG    CG    0.000  1.000
    7614 POLY   1 POL  CG    CG    0.000  1.000
    7615 POLY   1 POL  CG    CG    0.000  1.000
    7616 POLY   1 POL  CG    CG    0.000  1.000
    7617 POLY   1 POL  CG    CG    0.000  1.000
    7618 POLY   1 POL  CG    CG    0.000  1.000
    7619 POLY   1 POL  CG    CG    0.000  1.000
    7620 POLY   1 POL  CG    CG    0.000  1.000
    7621 POLY   1 POL  CG    CG    0.000  1.000
    7622 POLY   1 POL  CG    CG    0.000  1.000
    7623 POLY   1 POL  CG    CG    0.000  1.000
    7624 POLY   1 POL  CG    CG    0.000  1.000
    7625 POLY   1 POL  CG    CG    0.000  1.000
    7626 POLY   1 POL  CG    CG    0.000  1.000
    7627 POLY   1 POL  CG    CG    0.000  1.000
    7628 POLY   1 POL  CG    CG    0.000  1.000
    7629 POLY   1 POL  CG    CG    0.000  1.000
    7630 POLY   1 POL  CG    CG    0.000  1.000
    7631 POLY   1 POL  CG    CG    0.000  1.000
    7632 POLY   1 POL  CG    CG    0.000  1.000
    7633 POLY   1 POL  CG    CG    0.000  1.000
    7634 POLY   1 POL  CG    CG    0.000  1.000
    7635 POLY   1 POL  CG    CG    0.000  1.000
    7636 POLY   1 POL  CG    CG    0.000  1.000
    7637 POLY   1 POL  CG    CG    0.000  1.000
    7638 POLY   1 POL  CG    CG    0.000  1.000
    7639 POLY   1 POL  CG    CG    0.000  1.000
    7640 POLY   1 POL  CG    CG    0.000  1.000
    7641 POLY   1 POL  CG    CG    0.000  1.000
    7642 POLY   1 POL  CG    CG    0.000  1.000
    7643 POLY   1 POL  CG    CG    0.000  1.000
    7644 POLY   1 POL  CG    CG    0.000  1.000
    7645 POLY   1 POL  CG    CG    0.000  1.000
    7646 POLY   1 POL  CG    CG    0.000  1.000
    7647 POLY   1 POL  CG    CG    0.000  1.000
    7648 POLY   1 POL  CG    CG    0.000  1.000
    7649 POLY   1 POL  CG    CG    0.000  1.000
    7650 POLY   1 POL  CG    CG    0.000  1.000
    7651 POLY   1 POL  CG    CG    0.000  1.000
    7652 POLY   1 POL  CG    CG    0.000  1.000
    7653 POLY   1 POL  CG    CG    0.000  1.000
    7654 POLY   1 POL  CG    CG    0.000  1.000
    7655 POLY   1 POL  CG    CG    0.000  1.000
    7656 POLY   1 POL  CG    CG    0.000  1.000
    7657 POLY   1 POL  CG    CG    0.000  1.000
    7658 POLY   1 POL  CG    CG    0.000  1.000
    7659 POLY   1 POL  CG    CG    0.000  1.000
    7660 POLY   1 POL  CG    CG    0.000  1.000
    7661 POLY   1 POL  CG    CG    0.000  1.000
    7662 POLY   1 POL  CG    CG    0.000  1.000
    7663 POLY   1 POL  CG    CG    0.000  1.000
    7664 POLY   1 POL  CG    CG    0.000  1.000
    7665 POLY   1 POL  CG    CG    0.000  1.000
    7666 POLY   1 POL  CG    CG    0.000  1.000
    7667 POLY   1 POL  CG    CG    0.000  1.000
    7668 POLY   1 POL  CG    CG    0.000  1.000
    7669 POLY   1 POL  CG    CG    0.000  1.000
    7670 POLY   1 POL  CG    CG    0.000  1.000
    7671 POLY   1 POL  CG    CG    0.000  1.000
    7672 POLY   1 POL  CG    CG    0.000  1.000
    7673 POLY   1 POL  CG    CG    0.000  1.000
    7674 POLY   1 POL  CG    CG    0.000  1.000
    7675 POLY   1 POL  CG    CG    0.000  1.000
    7676 POLY   1 POL  CG    CG    0.000  1.000
    7677 POLY   1 POL  CG    CG    0.000  1.000
    7678 POLY   1 POL  CG    CG    0.000  1.000
    7679 POLY   1 POL  CG    CG    0.000  1.000
    7680 POLY   1 POL  CG    CG    0.000  1.000
    7681 POLY   1 POL  CG    CG    0.000  1.000
    7682 POLY   1 POL  CG    CG    0.000  1.000
    7683 POLY   1 POL  CG    CG    0.000  1.000
    7684 POLY   1 POL  CG    CG    0.000  1.000
    7685 POLY   1 POL  CG    CG    0.000  1.000
    7686 POLY   1 POL  CG    CG    0.000  1.000
    7687 POLY   1 POL  CG    CG    0.000  1.000
    7688 POLY   1 POL  CG    CG    0.000  1.000
    7689 POLY   1 POL  CG    CG    0.000  1.000
    7690 POLY   1 POL  CG    CG    0.000  1.000
    7691 POLY   1 POL  CG    CG    0.000  1.000
    7692 POLY   1 POL  CG    CG    0.000  1.000
    7693 POLY   1 POL  CG    CG    0.000  1.000
    7694 POLY   1 POL  CG    CG    0.000  1.000
    7695 POLY   1 POL  CG    CG    0.000  1.000
    7696 POLY   1 POL  CG    CG    0.000  1.000
    7697 POLY   1 POL  CG    CG    0.000  1.000
    7698 POLY   1 POL  CG    CG    0.000  1.000
    7699 POLY   1 POL  CG    CG    0.000  1.000
    7700 POLY   1 POL  CG    CG    0.000  1.000
    7701 POLY   1 POL  CG    CG    0.000  1.000
    7702 POLY   1 POL  CG    CG    0.000  1.000
    7703 POLY   1 POL  CG    CG    0.000  1.000
    7704 POLY   1 POL  CG    CG    0.000  1.000
    7705 POLY   1 POL  CG    CG    0.000  1.000
    7706 POLY   1 POL  CG    CG    0.000  1.000
    7707 POLY   1 POL  CG    CG    0.000  1.000
    7708 POLY   1 POL  CG    CG    0.000  1.000
    7709 POLY   1 POL  CG    CG    0.000  1.000
    7710 POLY   1 POL  CG    CG    0.000  1.000
    7711 POLY   1 POL  CG    CG    0.000  1.000
    7712 POLY   1 POL  CG    CG    0.000  1.000
    7713 POLY   1 POL  CG    CG    0.000  1.000
    7714 POLY   1 POL  CG    CG    0.000  1.000
    7715 POLY   1 POL  CG    CG    0.000  1.000
    7716 POLY   1 POL  CG    CG    0.000  1.000
    7717 POLY   1 POL  CG    CG    0.000  1.000
    7718 POLY   1 POL  CG    CG    0.000  1.000
    7719 POLY   1 POL  CG    CG    0.000  1.000
    7720 POLY   1 POL  CG    CG    0.000  1.000
    7721 POLY   1 POL  CG    CG    0.000  1.000
    7722 POLY   1 POL  CG    CG    0.000  1.000
    7723 POLY   1 POL  CG    CG    0.000  1.000
    7724 POLY   1 POL  CG    CG    0.000  1.000
    7725 POLY   1 POL  CG    CG    0.000  1.000
    7726 POLY   1 POL  CG    CG    0.000  1.000
    7727 POLY   1 POL  CG    CG    0.000  1.000
    7728 POLY   1 POL  CG    CG    0.000  1.000
    7729 POLY   1 POL  CG    CG    0.000  1.000
    7730 POLY   1 POL  CG    CG    0.000  1.000
    7731 POLY   1 POL  CG    CG    0.000  1.000
    7732 POLY   1 POL  CG    CG    0.000  1.000
    7733 POLY   1 POL  CG    CG    0.000  1.000
    7734 POLY   1 POL  CG    CG    0.000  1.000
    7735 POLY   1 POL  CG    CG    0.000  1.000
    7736 POLY   1 POL  CG    CG    0.000  1.000
    7737 POLY   1 POL  CG    CG    0.000  1.000
    7738 POLY   1 POL  CG    CG    0.000  1.000
    7739 POLY   1 POL  CG    CG    0.000  1.000
    7740 POLY   1 POL  CG    CG    0.000  1.000
    7741 POLY   1 POL  CG    CG    0.000  1.000
    7742 POLY   1 POL  CG    CG    0.000  1.000
    7743 POLY   1 POL  CG    CG    0.000  1.000
    7744 POLY   1 POL  CG    CG    0.000  1.000
    7745 POLY   1 POL  CG    CG    0.000  1.000
    7746 POLY   1 POL  CG    CG    0.000  1.000
    7747 POLY   1 POL  CG    CG    0.000  1.000
    7748 POLY   1 POL  CG    CG    0.000  1.000
    7749 POLY   1 POL  CG    CG    0.000  1.000
    7750 POLY   1 POL  CG    CG    0.000  1.000
    7751 POLY   1 POL  CG    CG    0.000  1.000
    7752 POLY   1 POL  CG    CG    0.000  1.000
    7753 POLY   1 POL  CG    CG    0.000  1.000
    7754 POLY   1 POL  CG    CG    0.000  1.000
    7755 POLY   1 POL  CG    CG    0.000  1.000
    7756 POLY   1 POL  CG    CG    0.000  1.000
    7757 POLY   1 POL  CG    CG    0.000  1.000
    7758 POLY   1 POL  CG    CG    0.000  1.000
    7759 POLY   1 POL  CG    CG    0.000  1.000
    7760 POLY   1 POL  CG    CG    0.000  1.000
    7761 POLY   1 POL  CG    CG    0.000  1.000
    7762 POLY   1 POL  CG    CG    0.000  1.000
    7763 POLY   1 POL  CG    CG    0.000  1.000
    7764 POLY   1 POL  CG    CG    0.000  1.000
    7765 POLY   1 POL  CG    CG    0.000  1.000
    7766 POLY   1 POL  CG    CG    0.000  1.000
    7767 POLY   1 POL  CG    CG    0.000  1.000
    7768 POLY   1 POL  CG    CG    0.000  1.000
    7769 POLY   1 POL  CG    CG    0.000  1.000
    7770 POLY   1 POL  CG    CG    0.000  1.000
    7771 POLY   1 POL  CG    CG    0.000  1.000
    7772 POLY   1 POL  CG    CG    0.000  1.000
    7773 POLY   1 POL  CG    CG    0.000  1.000
    7774 POLY   1 POL  CG    CG    0.000  1.000
    7775 POLY   1 POL  CG    CG    0.000  1.000
    7776 POLY   1 POL  CG    CG    0.000  1.000
    7777 POLY   1 POL  CG    CG    0.000  1.000
    7778 POLY   1 POL  CG    CG    0.000  1.000
    7779 POLY   1 POL  CG    CG    0.000  1.000
    7780 POLY   1 POL  CG    CG    0.000  1.000
    7781 POLY   1 POL  CG    CG    0.000  1.000
    7782 POLY   1 POL  CG    CG    0.000  1.000
    7783 POLY   1 POL  CG    CG    0.000  1.000
    7784 POLY   1 POL  CG    CG    0.000  1.000
    7785 POLY   1 POL  CG    CG    0.000  1.000
    7786 POLY   1 POL  CG    CG    0.000  1.000
    7787 POLY   1 POL  CG    CG    0.000  1.000
    7788 POLY   1 POL  CG    CG    0.000  1.000
    7789 POLY   1 POL  CG    CG    0.000  1.000
    7790 POLY   1 POL  CG    CG    0.000  1.000
    7791 POLY   1 POL  CG    CG    0.000  1.000
    7792 POLY   1 POL  CG    CG    0.000  1.000
    7793 POLY   1 POL  CG    CG    0.000  1.000
    7794 POLY   1 POL  CG    CG    0.000  1.000
    7795 POLY   1 POL  CG    CG    0.000  1.000
    7796 POLY   1 POL  CG    CG    0.000  1.000
    7797 POLY   1 POL  CG    CG    0.000  1.000
    7798 POLY   1 POL  CG    CG    0.000  1.000
    7799 POLY   1 POL  CG    CG    0.000  1.000
    7800 POLY   1 POL  CG    CG    0.000  1.000
    7801 POLY   1 POL  CG    CG    0.000  1.000
    7802 POLY   1 POL  CG    CG    0.000  1.000
    7803 POLY   1 POL  CG    CG    0.000  1.000
    7804 POLY   1 POL  CG    CG    0.000  1.000
    7805 POLY   1 POL  CG    CG    0.000  1.000
    7806 POLY   1 POL  CG    CG    0.000  1.000
    7807 POLY   1 POL  CG    CG    0.000  1.000
    7808 POLY   1 POL  CG    CG    0.000  1.000
    7809 POLY   1 POL  CG    CG    0.000  1.000
    7810 POLY   1 POL  CG    CG    0.000  1.000
    7811 POLY   1 POL  CG    CG    0.000  1.000
    7812 POLY   1 POL  CG    CG    0.000  1.000
    7813 POLY   1 POL  CG    CG    0.000  1.000
    7814 POLY   1 POL  CG    CG    0.000  1.000
    7815 POLY   1 POL  CG    CG    0.000  1.000
    7816 POLY   1 POL  CG    CG    0.000  1.000
    7817 POLY   1 POL  CG    CG    0.000  1.000
    7818 POLY   1 POL  CG    CG    0.000  1.000
    7819 POLY   1 POL  CG    CG    0.000  1.000
    7820 POLY   1 POL  CG    CG    0.000  1.000
    7821 POLY   1 POL  CG    CG    0.000  1.000
    7822 POLY   1 POL  CG    CG    0.000  1.000
    7823 POLY   1 POL  CG    CG    0.000  1.000
    7824 POLY   1 POL  CG    CG    0.000  1.000
    7825 POLY   1 POL  CG    CG    0.000  1.000
    7826 POLY   1 POL  CG    CG    0.000  1.000
    7827 POLY   1 POL  CG    CG    0.000  1.000
    7828 POLY   1 POL  CG    CG    0.000  1.000
    7829 POLY   1 POL  CG    CG    0.000  1.000
    7830 POLY   1 POL  CG    CG    0.000  1.000
    7831 POLY   1 POL  CG    CG    0.000  1.000
    7832 POLY   1 POL  CG    CG    0.000  1.000
    7833 POLY   1 POL  CG    CG    0.000  1.000
    7834 POLY   1 POL  CG    CG    0.000  1.000
    7835 POLY   1 POL  CG    CG    0.000  1.000
    7836 POLY   1 POL  CG    CG    0.000  1.000
    7837 POLY   1 POL  CG    CG    0.000  1.000
    7838 POLY   1 POL  CG    CG    0.000  1.000
    7839 POLY   1 POL  CG    CG    0.000  1.000
    7840 POLY   1 POL  CG    CG    0.000  1.000
    7841 POLY   1 POL  CG    CG    0.000  1.000
    7842 POLY   1 POL  CG    CG    0.000  1.000
    7843 POLY   1 POL  CG    CG    0.000  1.000
    7844 POLY   1 POL  CG    CG    0.000  1.000
    7845 POLY   1 POL  CG    CG    0.000  1.000
    7846 POLY   1 POL  CG    CG    0.000  1.000
    7847 POLY   1 POL  CG    CG    0.000  1.000
    7848 POLY   1 POL  CG    CG    0.000  1.000
    7849 POLY   1 POL  CG    CG    0.000  1.000
    7850 POLY   1 POL  CG    CG    0.000  1.000
    7851 POLY   1 POL  CG    CG    0.000  1.000
    7852 POLY   1 POL  CG    CG    0.000  1.000
    7853 POLY   1 POL  CG    CG    0.000  1.000
    7854 POLY   1 POL  CG    CG    0.000  1.000
    7855 POLY   1 POL  CG    CG    0.000  1.000
    7856 POLY   1 POL  CG    CG    0.000  1.000
    7857 POLY   1 POL  CG    CG    0.000  1.000
    7858 POLY   1 POL  CG    CG    0.000  1.000
    7859 POLY   1 POL  CG    CG    0.000  1.000
    7860 POLY   1 POL  CG    CG    0.000  1.000
    7861 POLY   1 POL  CG    CG    0.000  1.000
    7862 POLY   1 POL  CG    CG    0.000  1.000
    7863 POLY   1 POL  CG    CG    0.000  1.000
    7864 POLY   1 POL  CG    CG    0.000  1.000
    7865 POLY   1 POL  CG    CG    0.000  1.000
    7866 POLY   1 POL  CG    CG    0.000  1.000
    7867 POLY   1 POL  CG    CG    0.000  1.000
    7868 POLY   1 POL  CG    CG    0.000  1.000
    7869 POLY   1 POL  CG    CG    0.000  1.000
    7870 POLY   1 POL  CG    CG    0.000  1.000
    7871 POLY   1 POL  CG    CG    0.000  1.000
    7872 POLY   1 POL  CG    CG    0.000  1.000
    7873 POLY   1 POL  CG    CG    0.000  1.000
    7874 POLY   1 POL  CG    CG    0.000  1.000
    7875 POLY   1 POL  CG    CG    0.000  1.000
    7876 POLY   1 POL  CG    CG    0.000  1.000
    7877 POLY   1 POL  CG    CG    0.000  1.000
    7878 POLY   1 POL  CG    CG    0.000  1.000
    7879 POLY   1 POL  CG    CG    0.000  1.000
    7880 POLY   1 POL  CG    CG    0.000  1.000
    7881 POLY   1 POL  CG    CG    0.000  1.000
    7882 POLY   1 POL  CG    CG    0.000  1.000
    7883 POLY   1 POL  CG    CG    0.000  1.000
    7884 POLY   1 POL  CG    CG    0.000  1.000
    7885 POLY   1 POL  CG    CG    0.000  1.000
    7886 POLY   1 POL  CG    CG    0.000  1.000
    7887 POLY   1 POL  CG    CG    0.000  1.000
    7888 POLY   1 POL  CG    CG    0.000  1.000
    7889 POLY   1 POL  CG    CG    0.000  1.000
    7890 POLY   1 POL  CG    CG    0.000  1.000
    7891 POLY   1 POL  CG    CG    0.000  1.000
    7892 POLY   1 POL  CG    CG    0.000  1.000
    7893 POLY   1 POL  CG    CG    0.000  1.000
    7894 POLY   1 POL  CG    CG    0.000  1.000
    7895 POLY   1 POL  CG    CG    0.000  1.000
    7896 POLY   1 POL  CG    CG    0.000  1.000
    7897 POLY   1 POL  CG    CG    0.000  1.000
    7898 POLY   1 POL  CG    CG    0.000  1.000
    7899 POLY   1 POL  CG    CG    0.000  1.000
    7900 POLY   1 POL  CG    CG    0.000  1.000
    7901 POLY   1 POL  CG    CG    0.000  1.000
    7902 POLY   1 POL  CG    CG    0.000  1.000
    7903 POLY   1 POL  CG    CG    0.000  1.000
    7904 POLY   1 POL  CG    CG    0.000  1.000
    7905 POLY   1 POL  CG    CG    0.000  1.000
    7906 POLY   1 POL  CG    CG    0.000  1.000
    7907 POLY   1 POL  CG    CG    0.000  1.000
    7908 POLY   1 POL  CG    CG    0.000  1.000
    7909 POLY   1 POL  CG    CG    0.000  1.000
    7910 POLY   1 POL  CG    CG    0.000  1.000
    7911 POLY   1 POL  CG    CG    0.000  1.000
    7912 POLY   1 POL  CG    CG    0.000  1.000
    7913 POLY   1 POL  CG    CG    0.000  1.000
    7914 POLY   1 POL  CG    CG    0.000  1.000
    7915 POLY   1 POL  CG    CG    0.000  1.000
    7916 POLY   1 POL  CG    CG    0.000  1.000
    7917 POLY   1 POL  CG    CG    0.000  1.000
    7918 POLY   1 POL  CG    CG    0.000  1.000
    7919 POLY   1 POL  CG    CG    0.000  1.000
    7920 POLY   1 POL  CG    CG    0.000  1.000
    7921 POLY   1 POL  CG    CG    0.000  1.000
    7922 POLY   1 POL  CG    CG    0.000  1.000
    7923 POLY   1 POL  CG    CG    0.000  1.000
    7924 POLY   1 POL  CG    CG    0.000  1.000
    7925 POLY   1 POL  CG    CG    0.000  1.000
    7926 POLY   1 POL  CG    CG    0.000  1.000
    7927 POLY   1 POL  CG    CG    0.000  1.000
    7928 POLY   1 POL  CG    CG    0.000  1.000
    7929 POLY   1 POL  CG    CG    0.000  1.000
    7930 POLY   1 POL  CG    CG    0.000  1.000
    7931 POLY   1 POL  CG    CG    0.000  1.000
    7932 POLY   1 POL  CG    CG    0.000  1.000
    7933 POLY   1 POL  CG    CG    0.000  1.000
    7934 POLY   1 POL  CG    CG    0.000  1.000
    7935 POLY   1 POL  CG    CG    0.000  1.000
    7936 POLY   1 POL  CG    CG    0.000  1.000
    7937 POLY   1 POL  CG    CG    0.000  1.000
    7938 POLY   1 POL  CG    CG    0.000  1.000
    7939 POLY   1 POL  CG    CG    0.000  1.000
    7940 POLY   1 POL  CG    CG    0.000  1.000
    7941 POLY   1 POL  CG    CG    0.000  1.000
    7942 POLY   1 POL  CG    CG    0.000  1.000
    7943 POLY   1 POL  CG    CG    0.000  1.000
    7944 POLY   1 POL  CG    CG    0.000  1.000
    7945 POLY   1 POL  CG    CG    0.000  1.000
    7946 POLY   1 POL  CG    CG    0.000  1.000
    7947 POLY   1 POL  CG    CG    0.000  1.000
    7948 POLY   1 POL  CG    CG    0.000  1.000
    7949 POLY   1 POL  CG    CG    0.000  1.000
    7950 POLY   1 POL  CG    CG    0.000  1.000
    7951 POLY   1 POL  CG    CG    0.000  1.000
    7952 POLY   1 POL  CG    CG    0.000  1.000
    7953 POLY   1 POL  CG    CG    0.000  1.000
    7954 POLY   1 POL  CG    CG    0.000  1.000
    7955 POLY   1 POL  CG    CG    0.000  1.000
    7956 POLY   1 POL  CG    CG    0.000  1.000
    7957 POLY   1 POL  CG    CG    0.000  1.000
    7958 POLY   1 POL  CG    CG    0.000  1.000
    7959 POLY   1 POL  CG    CG    0.000  1.000
    7960 POLY   1 POL  CG    CG    0.000  1.000
    7961 POLY   1 POL  CG    CG    0.000  1.000
    7962 POLY   1 POL  CG    CG    0.000  1.000
    7963 POLY   1 POL  CG    CG    0.000  1.000
    7964 POLY   1 POL  CG    CG    0.000  1.000
    7965 POLY   1 POL  CG    CG    0.000  1.000
    7966 POLY   1 POL  CG    CG    0.000  1.000
    7967 POLY   1 POL  CG    CG    0.000  1.000
    7968 POLY   1 POL  CG    CG    0.000  1.000
    7969 POLY   1 POL  CG    CG    0.000  1.000
    7970 POLY   1 POL  CG    CG    0.000  1.000
    7971 POLY   1 POL  CG    CG    0.000  1.000
    7972 POLY   1 POL  CG    CG    0.000  1.000
    7973 POLY   1 POL  CG    CG    0.000  1.000
    7974 POLY   1 POL  CG    CG    0.000  1.000
    7975 POLY   1 POL  CG    CG    0.000  1.000
    7976 POLY   1 POL  CG    CG    0.000  1.000
    7977 POLY   1 POL  CG    CG    0.000  1.000
    7978 POLY   1 POL  CG    CG    0.000  1.000
    7979 POLY   1 POL  CG    CG    0.000  1.000
    7980 POLY   1 POL  CG    CG    0.000  1.000
    7981 POLY   1 POL  CG    CG    0.000  1.000
    7982 POLY   1 POL  CG    CG    0.000  1.000
    7983 POLY   1 POL  CG    CG    0.000  1.000
    7984 POLY   1 POL  CG    CG    0.000  1.000
    7985 POLY   1 POL  CG    CG    0.000  1.000
    7986 POLY   1 POL  CG    CG    0.000  1.000
    7987 POLY   1 POL  CG    CG    0.000  1.000
    7988 POLY   1 POL  CG    CG    0.000  1.000
    7989 POLY   1 POL  CG    CG    0.000  1.000
    7990 POLY   1 POL  CG    CG    0.000  1.000
    7991 POLY   1 POL  CG    CG    0.000  1.000
    7992 POLY   1 POL  CG    CG    0.000  1.000
    7993 POLY   1 POL  CG    CG    0.000  1.000
    7994 POLY   1 POL  CG    CG    0.000  1.000
    7995 POLY   1 POL  CG    CG    0.000  1.000
    7996 POLY   1 POL  CG    CG    0.000  1.000
    7997 POLY   1 POL  CG    CG    0.000  1.000
    7998 POLY   1 POL  CG    CG    0.000  1.000
    7999 POLY   1 POL  CG    CG    0.000  1.000
    8000 POLY   1 POL  CG    CG    0.000  1.000
    8001 POLY   1 POL  CG    CG    0.000  1.000
    8002 POLY   1 POL  CG    CG    0.000  1.000
    8003 POLY   1 POL  CG    CG    0.000  1.000
    8004 POLY   1 POL  CG    CG    0.000  1.000
    8005 POLY   1 POL  CG    CG    0.000  1.000
    8006 POLY   1 POL  CG    CG    0.000  1.000
    8007 POLY   1 POL  CG    CG    0.000  1.000
    8008 POLY   1 POL  CG    CG    0.000  1.000
    8009 POLY   1 POL  CG    CG    0.000  1.000
    8010 POLY   1 POL  CG    CG    0.000  1.000
    8011 POLY   1 POL  CG    CG    0.000  1.000
    8012 POLY   1 POL  CG    CG    0.000  1.000
    8013 POLY   1 POL  CG    CG    0.000  1.000
    8014 POLY   1 POL  CG    CG    0.000  1.000
    8015 POLY   1 POL  CG    CG    0.000  1.000
    8016 POLY   1 POL  CG    CG    0.000  1.000
    8017 POLY   1 POL  CG    CG    0.000  1.000
    8018 POLY   1 POL  CG    CG    0.000  1.000
    8019 POLY   1 POL  CG    CG    0.000  1.000
    8020 POLY   1 POL  CG    CG    0.000  1.000
    8021 POLY   1 POL  CG    CG    0.000  1.000
    8022 POLY   1 POL  CG    CG    0.000  1.000
    8023 POLY   1 POL  CG    CG    0.000  1.000
    8024 POLY   1 POL  CG    CG    0.000  1.000
    8025 POLY   1 POL  CG    CG    0.000  1.000
    8026 POLY   1 POL  CG    CG    0.000  1.000
    8027 POLY   1 POL  CG    CG    0.000  1.000
    8028 POLY   1 POL  CG    CG    0.000  1.000
    8029 POLY   1 POL  CG    CG    0.000  1.000
    8030 POLY   1 POL  CG    CG    0.000  1.000
    8031 POLY   1 POL  CG    CG    0.000  1.000
    8032 POLY   1 POL  CG    CG    0.000  1.000
    8033 POLY   1 POL  CG    CG    0.000  1.000
    8034 POLY   1 POL  CG    CG    0.000  1.000
    8035 POLY   1 POL  CG    CG    0.000  1.000
    8036 POLY   1 POL  CG    CG    0.000  1.000
    8037 POLY   1 POL  CG    CG    0.000  1.000
    8038 POLY   1 POL  CG    CG    0.000  1.000
    8039 POLY   1 POL  CG    CG    0.000  1.000
    8040 POLY   1 POL  CG    CG    0.000  1.000
    8041 POLY   1 POL  CG    CG    0.000  1.000
    8042 POLY   1 POL  CG    CG    0.000  1.000
    8043 POLY   1 POL  CG    CG    0.000  1.000
    8044 POLY   1 POL  CG    CG    0.000  1.000
    8045 POLY   1 POL  CG    CG    0.000  1.000
    8046 POLY   1 POL  CG    CG    0.000  1.000
    8047 POLY   1 POL  CG    CG    0.000  1.000
    8048 POLY   1 POL  CG    CG    0.000  1.000
    8049 POLY   1 POL  CG    CG    0.000  1.000
    8050 POLY   1 POL  CG    CG    0.000  1.000
    8051 POLY   1 POL  CG    CG    0.000  1.000
    8052 POLY   1 POL  CG    CG    0.000  1.000
    8053 POLY   1 POL  CG    CG    0.000  1.000
    8054 POLY   1 POL  CG    CG    0.000  1.000
    8055 POLY   1 POL  CG    CG    0.000  1.000
    8056 POLY   1 POL  CG    CG    0.000  1.000
    8057 POLY   1 POL  CG    CG    0.000  1.000
    8058 POLY   1 POL  CG    CG    0.000  1.000
    8059 POLY   1 POL  CG    CG    0.000  1.000
    8060 POLY   1 POL  CG    CG    0.000  1.000
    8061 POLY   1 POL  CG    CG    0.000  1.000
    8062 POLY   1 POL  CG    CG    0.000  1.000
    8063 POLY   1 POL  CG    CG    0.000  1.000
    8064 POLY   1 POL  CG    CG    0.000  1.000
    8065 POLY   1 POL  CG    CG    0.000  1.000
    8066 POLY   1 POL  CG    CG    0.000  1.000
    8067 POLY   1 POL  CG    CG    0.000  1.000
    8068 POLY   1 POL  CG    CG    0.000  1.000
    8069 POLY   1 POL  CG    CG    0.000  1.000
    8070 POLY   1 POL  CG    CG    0.000  1.000
    8071 POLY   1 POL  CG    CG    0.000  1.000
    8072 POLY   1 POL  CG    CG    0.000  1.000
    8073 POLY   1 POL  CG    CG    0.000  1.000
    8074 POLY   1 POL  CG    CG    0.000  1.000
    8075 POLY   1 POL  CG    CG    0.000  1.000
    8076 POLY   1 POL  CG    CG    0.000  1.000
    8077 POLY   1 POL  CG    CG    0.000  1.000
    8078 POLY   1 POL  CG    CG    0.000  1.000
    8079 POLY   1 POL  CG    CG    0.000  1.000
    8080 POLY   1 POL  CG    CG    0.000  1.000
    8081 POLY   1 POL  CG    CG    0.000  1.000
    8082 POLY   1 POL  CG    CG    0.000  1.000
    8083 POLY   1 POL  CG    CG    0.000  1.000
    8084 POLY   1 POL  CG    CG    0.000  1.000
    8085 POLY   1 POL  CG    CG    0.000  1.000
    8086 POLY   1 POL  CG    CG    0.000  1.000
    8087 POLY   1 POL  CG    CG    0.000  1.000
    8088 POLY   1 POL  CG    CG    0.000  1.000
    8089 POLY   1 POL  CG    CG    0.000  1.000
    8090 POLY   1 POL  CG    CG    0.000  1.000
    8091 POLY   1 POL  CG    CG    0.000  1.000
    8092 POLY   1 POL  CG    CG    0.000  1.000
    8093 POLY   1 POL  CG    CG    0.000  1.000
    8094 POLY   1 POL  CG    CG    0.000  1.000
    8095 POLY   1 POL  CG    CG    0.000  1.000
    8096 POLY   1 POL  CG    CG    0.000  1.000
    8097 POLY   1 POL  CG    CG    0.000  1.000
    8098 POLY   1 POL  CG    CG    0.000  1.000
    8099 POLY   1 POL  CG    CG    0.000  1.000
    8100 POLY   1 POL  CG    CG    0.000  1.000
    8101 POLY   1 POL  CG    CG    0.000  1.000
    8102 POLY   1 POL  CG    CG    0.000  1.000
    8103 POLY   1 POL  CG    CG    0.000  1.000
    8104 POLY   1 POL  CG    CG    0.000  1.000
    8105 POLY   1 POL  CG    CG    0.000  1.000
    8106 POLY   1 POL  CG    CG    0.000  1.000
    8107 POLY   1 POL  CG    CG    0.000  1.000
    8108 POLY   1 POL  CG    CG    0.000  1.000
    8109 POLY   1 POL  CG    CG    0.000  1.000
    8110 POLY   1 POL  CG    CG    0.000  1.000
    8111 POLY   1 POL  CG    CG    0.000  1.000
    8112 POLY   1 POL  CG    CG    0.000  1.000
    8113 POLY   1 POL  CG    CG    0.000  1.000
    8114 POLY   1 POL  CG    CG    0.000  1.000
    8115 POLY   1 POL  CG    CG    0.000  1.000
    8116 POLY   1 POL  CG    CG    0.000  1.000
    8117 POLY   1 POL  CG    CG    0.000  1.000
    8118 POLY   1 POL  CG    CG    0.000  1.000
    8119 POLY   1 POL  CG    CG    0.000  1.000
    8120 POLY   1 POL  CG    CG    0.000  1.000
    8121 POLY   1 POL  CG    CG    0.000  1.000
    8122 POLY   1 POL  CG    CG    0.000  1.000
    8123 POLY   1 POL  CG    CG    0.000  1.000
    8124 POLY   1 POL  CG    CG    0.000  1.000
    8125 POLY   1 POL  CG    CG    0.000  1.000
    8126 POLY   1 POL  CG    CG    0.000  1.000
    8127 POLY   1 POL  CG    CG    0.000  1.000
    8128 POLY   1 POL  CG    CG    0.000  1.000
    8129 POLY   1 POL  CG    CG    0.000  1.000
    8130 POLY   1 POL  CG    CG    0.000  1.000
    8131 POLY   1 POL  CG    CG    0.000  1.000
    8132 POLY   1 POL  CG    CG    0.000  1.000
    8133 POLY   1 POL  CG    CG    0.000  1.000
    8134 POLY   1 POL  CG    CG    0.000  1.000
    8135 POLY   1 POL  CG    CG    0.000  1.000
    8136 POLY   1 POL  CG    CG    0.000  1.000
    8137 POLY   1 POL  CG    CG    0.000  1.000
    8138 POLY   1 POL  CG    CG    0.000  1.000
    8139 POLY   1 POL  CG    CG    0.000  1.000
    8140 POLY   1 POL  CG    CG    0.000  1.000
    8141 POLY   1 POL  CG    CG    0.000  1.000
    8142 POLY   1 POL  CG    CG    0.000  1.000
    8143 POLY   1 POL  CG    CG    0.000  1.000
    8144 POLY   1 POL  CG    CG    0.000  1.000
    8145 POLY   1 POL  CG    CG    0.000  1.000
    8146 POLY   1 POL  CG    CG    0.000  1.000
    8147 POLY   1 POL  CG    CG    0.000  1.000
    8148 POLY   1 POL  CG    CG    0.000  1.000
    8149 POLY   1 POL  CG    CG    0.000  1.000
    8150 POLY   1 POL  CG    CG    0.000  1.000
    8151 POLY   1 POL  CG    CG    0.000  1.000
    8152 POLY   1 POL  CG    CG    0.000  1.000
    8153 POLY   1 POL  CG    CG    0.000  1.000
    8154 POLY   1 POL  CG    CG    0.000  1.000
    8155 POLY   1 POL  CG    CG    0.000  1.000
    8156 POLY   1 POL  CG    CG    0.000  1.000
    8157 POLY   1 POL  CG    CG    0.000  1.000
    8158 POLY   1 POL  CG    CG    0.000  1.000
    8159 POLY   1 POL  CG    CG    0.000  1.000
    8160 POLY   1 POL  CG    CG    0.000  1.000
    8161 POLY   1 POL  CG    CG    0.000  1.000
    8162 POLY   1 POL  CG    CG    0.000  1.000
    8163 POLY   1 POL  CG    CG    0.000  1.000
    8164 POLY   1 POL  CG    CG    0.000  1.000
    8165 POLY   1 POL  CG    CG    0.000  1.000
    8166 POLY   1 POL  CG    CG    0.000  1.000
    8167 POLY   1 POL  CG    CG    0.000  1.000
    8168 POLY   1 POL  CG    CG    0.000  1.000
    8169 POLY   1 POL  CG    CG    0.000  1.000
    8170 POLY   1 POL  CG    CG    0.000  1.000
    8171 POLY   1 POL  CG    CG    0.000  1.000
    8172 POLY   1 POL  CG    CG    0.000  1.000
    8173 POLY   1 POL  CG    CG    0.000  1.000
    8174 POLY   1 POL  CG    CG    0.000  1.000
    8175 POLY   1 POL  CG    CG    0.000  1.000
    8176 POLY   1 POL  CG    CG    0.000  1.000
    8177 POLY   1 POL  CG    CG    0.000  1.000
    8178 POLY   1 POL  CG    CG    0.000  1.000
    8179 POLY   1 POL  CG    CG    0.000  1.000
    8180 POLY   1 POL  CG    CG    0.000  1.000
    8181 POLY   1 POL  CG    CG    0.000  1.000
    8182 POLY   1 POL  CG    CG    0.000  1.000
    8183 POLY   1 POL  CG    CG    0.000  1.000
    8184 POLY   1 POL  CG    CG    0.000  1.000
    8185 POLY   1 POL  CG    CG    0.000  1.000
    8186 POLY   1 POL  CG    CG    0.000  1.000
    8187 POLY   1 POL  CG    CG    0.000  1.000
    8188 POLY   1 POL  CG    CG    0.000  1.000
    8189 POLY   1 POL  CG    CG    0.000  1.000
    8190 POLY   1 POL  CG    CG    0.000  1.000
    8191 POLY   1 POL  CG    CG    0.000  1.000
    8192 POLY   1 POL  CG    CG    0.000  1.000
    8193 POLY   1 POL  CG    CG    0.000  1.000
    8194 POLY   1 POL  CG    CG    0.000  1.000
    8195 POLY   1 POL  CG    CG    0.000  1.000
    8196 POLY   1 POL  CG    CG    0.000  1.000
    8197 POLY   1 POL  CG    CG    0.000  1.000
    8198 POLY   1 POL  CG    CG    0.000  1.000
    8199 POLY   1 POL  CG    CG    0.000  1.000
    8200 POLY   1 POL  CG    CG    0.000  1.000
    8201 POLY   1 POL  CG    CG    0.000  1.000
    8202 POLY   1 POL  CG    CG    0.000  1.000
    8203 POLY   1 POL  CG    CG    0.000  1.000
    8204 POLY   1 POL  CG    CG    0.000  1.000
    8205 POLY   1 POL  CG    CG    0.000  1.000
    8206 POLY   1 POL  CG    CG    0.000  1.000
    8207 POLY   1 POL  CG    CG    0.000  1.000
    8208 POLY   1 POL  CG    CG    0.000  1.000
    8209 POLY   1 POL  CG    CG    0.000  1.000
    8210 POLY   1 POL  CG    CG    0.000  1.000
    8211 POLY   1 POL  CG    CG    0.000  1.000
    8212 POLY   1 POL  CG    CG    0.000  1.000
    8213 POLY   1 POL  CG    CG    0.000  1.000
    8214 POLY   1 POL  CG    CG    0.000  1.000
    8215 POLY   1 POL  CG    CG    0.000  1.000
    8216 POLY   1 POL  CG    CG    0.000  1.000
    8217 POLY   1 POL  CG    CG    0.000  1.000
    8218 POLY   1 POL  CG    CG    0.000  1.000
    8219 POLY   1 POL  CG    CG    0.000  1.000
    8220 POLY   1 POL  CG    CG    0.000  1.000
    8221 POLY   1 POL  CG    CG    0.000  1.000
    8222 POLY   1 POL  CG    CG    0.000  1.000
    8223 POLY   1 POL  CG    CG    0.000  1.000
    8224 POLY   1 POL  CG    CG    0.000  1.000
    8225 POLY   1 POL  CG    CG    0.000  1.000
    8226 POLY   1 POL  CG    CG    0.000  1.000
    8227 POLY   1 POL  CG    CG    0.000  1.000
    8228 POLY   1 POL  CG    CG    0.000  1.000
    8229 POLY   1 POL  CG    CG    0.000  1.000
    8230 POLY   1 POL  CG    CG    0.000  1.000
    8231 POLY   1 POL  CG    CG    0.000  1.000
    8232 POLY   1 POL  CG    CG    0.000  1.000
    8233 POLY   1 POL  CG    CG    0.000  1.000
    8234 POLY   1 POL  CG    CG    0.000  1.000
    8235 POLY   1 POL  CG    CG    0.000  1.000
    8236 POLY   1 POL  CG    CG    0.000  1.000
    8237 POLY   1 POL  CG    CG    0.000  1.000
    8238 POLY   1 POL  CG    CG    0.000  1.000
    8239 POLY   1 POL  CG    CG    0.000  1.000
    8240 POLY   1 POL  CG    CG    0.000  1.000
    8241 POLY   1 POL  CG    CG    0.000  1.000
    8242 POLY   1 POL  CG    CG    0.000  1.000
    8243 POLY   1 POL  CG    CG    0.000  1.000
    8244 POLY   1 POL  CG    CG    0.000  1.000
    8245 POLY   1 POL  CG    CG    0.000  1.000
    8246 POLY   1 POL  CG    CG    0.000  1.000
    8247 POLY   1 POL  CG    CG    0.000  1.000
    8248 POLY   1 POL  CG    CG    0.000  1.000
    8249 POLY   1 POL  CG    CG    0.000  1.000
    8250 POLY   1 POL  CG    CG    0.000  1.000
    8251 POLY   1 POL  CG    CG    0.000  1.000
    8252 POLY   1 POL  CG    CG    0.000  1.000
    8253 POLY   1 POL  CG    CG    0.000  1.000
    8254 POLY   1 POL  CG    CG    0.000  1.000
    8255 POLY   1 POL  CG    CG    0.000  1.000
    8256 POLY   1 POL  CG    CG    0.000  1.000
    8257 POLY   1 POL  CG    CG    0.000  1.000
    8258 POLY   1 POL  CG    CG    0.000  1.000
    8259 POLY   1 POL  CG    CG    0.000  1.000
    8260 POLY   1 POL  CG    CG    0.000  1.000
    8261 POLY   1 POL  CG    CG    0.000  1.000
    8262 POLY   1 POL  CG    CG    0.000  1.000
    8263 POLY   1 POL  CG    CG    0.000  1.000
    8264 POLY   1 POL  CG    CG    0.000  1.000
    8265 POLY   1 POL  CG    CG    0.000  1.000
    8266 POLY   1 POL  CG    CG    0.000  1.000
    8267 POLY   1 POL  CG    CG    0.000  1.000
    8268 POLY   1 POL  CG    CG    0.000  1.000
    8269 POLY   1 POL  CG    CG    0.000  1.000
    8270 POLY   1 POL  CG    CG    0.000  1.000
    8271 POLY   1 POL  CG    CG    0.000  1.000
    8272 POLY   1 POL  CG    CG    0.000  1.000
    8273 POLY   1 POL  CG    CG    0.000  1.000
    8274 POLY   1 POL  CG    CG    0.000  1.000
    8275 POLY   1 POL  CG    CG    0.000  1.000
    8276 POLY   1 POL  CG    CG    0.000  1.000
    8277 POLY   1 POL  CG    CG    0.000  1.000
    8278 POLY   1 POL  CG    CG    0.000  1.000
    8279 POLY   1 POL  CG    CG    0.000  1.000
    8280 POLY   1 POL  CG    CG    0.000  1.000
    8281 POLY   1 POL  CG    CG    0.000  1.000
    8282 POLY   1 POL  CG    CG    0.000  1.000
    8283 POLY   1 POL  CG    CG    0.000  1.000
    8284 POLY   1 POL  CG    CG    0.000  1.000
    8285 POLY   1 POL  CG    CG    0.000  1.000
    8286 POLY   1 POL  CG    CG    0.000  1.000
    8287 POLY   1 POL  CG    CG    0.000  1.000
    8288 POLY   1 POL  CG    CG    0.000  1.000
    8289 POLY   1 POL  CG    CG    0.000  1.000
    8290 POLY   1 POL  CG    CG    0.000  1.000
    8291 POLY   1 POL  CG    CG    0.000  1.000
    8292 POLY   1 POL  CG    CG    0.000  1.000
    8293 POLY   1 POL  CG    CG    0.000  1.000
    8294 POLY   1 POL  CG    CG    0.000  1.000
    8295 POLY   1 POL  CG    CG    0.000  1.000
    8296 POLY   1 POL  CG    CG    0.000  1.000
    8297 POLY   1 POL  CG    CG    0.000  1.000
    8298 POLY   1 POL  CG    CG    0.000  1.000
    8299 POLY   1 POL  CG    CG    0.000  1.000
    8300 POLY   1 POL  CG    CG    0.000  1.000
    8301 POLY   1 POL  CG    CG    0.000  1.000
    8302 POLY   1 POL  CG    CG    0.000  1.000
    8303 POLY   1 POL  CG    CG    0.000  1.000
    8304 POLY   1 POL  CG    CG    0.000  1.000
    8305 POLY   1 POL  CG    CG    0.000  1.000
    8306 POLY   1 POL  CG    CG    0.000  1.000
    8307 POLY   1 POL  CG    CG    0.000  1.000
    8308 POLY   1 POL  CG    CG    0.000  1.000
    8309 POLY   1 POL  CG    CG    0.000  1.000
    8310 POLY   1 POL  CG    CG    0.000  1.000
    8311 POLY   1 POL  CG    CG    0.000  1.000
    8312 POLY   1 POL  CG    CG    0.000  1.000
    8313 POLY   1 POL  CG    CG    0.000  1.000
    8314 POLY   1 POL  CG    CG    0.000  1.000
    8315 POLY   1 POL  CG    CG    0.000  1.000
    8316 POLY   1 POL  CG    CG    0.000  1.000
    8317 POLY   1 POL  CG    CG    0.000  1.000
    8318 POLY   1 POL  CG    CG    0.000  1.000
    8319 POLY   1 POL  CG    CG    0.000  1.000
    8320 POLY   1 POL  CG    CG    0.000  1.000
    8321 POLY   1 POL  CG    CG    0.000  1.000
    8322 POLY   1 POL  CG    CG    0.000  1.000
    8323 POLY   1 POL  CG    CG    0.000  1.000
    8324 POLY   1 POL  CG    CG    0.000  1.000
    8325 POLY   1 POL  CG    CG    0.000  1.000
    8326 POLY   1 POL  CG    CG    0.000  1.000
    8327 POLY   1 POL  CG    CG    0.000  1.000
    8328 POLY   1 POL  CG    CG    0.000  1.000
    8329 POLY   1 POL  CG    CG    0.000  1.000
    8330 POLY   1 POL  CG    CG    0.000  1.000
    8331 POLY   1 POL  CG    CG    0.000  1.000
    8332 POLY   1 POL  CG    CG    0.000  1.000
    8333 POLY   1 POL  CG    CG    0.000  1.000
    8334 POLY   1 POL  CG    CG    0.000  1.000
    8335 POLY   1 POL  CG    CG    0.000  1.000
    8336 POLY   1 POL  CG    CG    0.000  1.000
    8337 POLY   1 POL  CG    CG    0.000  1.000
    8338 POLY   1 POL  CG    CG    0.000  1.000
    8339 POLY   1 POL  CG    CG    0.000  1.000
    8340 POLY   1 POL  CG    CG    0.000  1.000
    8341 POLY   1 POL  CG    CG    0.000  1.000
    8342 POLY   1 POL  CG    CG    0.000  1.000
    8343 POLY   1 POL  CG    CG    0.000  1.000
    8344 POLY   1 POL  CG    CG    0.000  1.000
    8345 POLY   1 POL  CG    CG    0.000  1.000
    8346 POLY   1 POL  CG    CG    0.000  1.000
    8347 POLY   1 POL  CG    CG    0.000  1.000
    8348 POLY   1 POL  CG    CG    0.000  1.000
    8349 POLY   1 POL  CG    CG    0.000  1.000
    8350 POLY   1 POL  CG    CG    0.000  1.000
    8351 POLY   1 POL  CG    CG    0.000  1.000
    8352 POLY   1 POL  CG    CG    0.000  1.000
    8353 POLY   1 POL  CG    CG    0.000  1.000
    8354 POLY   1 POL  CG    CG    0.000  1.000
    8355 POLY   1 POL  CG    CG    0.000  1.000
    8356 POLY   1 POL  CG    CG    0.000  1.000
    8357 POLY   1 POL  CG    CG    0.000  1.000
    8358 POLY   1 POL  CG    CG    0.000  1.000
    8359 POLY   1 POL  CG    CG    0.000  1.000
    8360 POLY   1 POL  CG    CG    0.000  1.000
    8361 POLY   1 POL  CG    CG    0.000  1.000
    8362 POLY   1 POL  CG    CG    0.000  1.000
    8363 POLY   1 POL  CG    CG    0.000  1.000
    8364 POLY   1 POL  CG    CG    0.000  1.000
    8365 POLY   1 POL  CG    CG    0.000  1.000
    8366 POLY   1 POL  CG    CG    0.000  1.000
    8367 POLY   1 POL  CG    CG    0.000  1.000
    8368 POLY   1 POL  CG    CG    0.000  1.000
    8369 POLY   1 POL  CG    CG    0.000  1.000
    8370 POLY   1 POL  CG    CG    0.000  1.000
    8371 POLY   1 POL  CG    CG    0.000  1.000
    8372 POLY   1 POL  CG    CG    0.000  1.000
    8373 POLY   1 POL  CG    CG    0.000  1.000
    8374 POLY   1 POL  CG    CG    0.000  1.000
    8375 POLY   1 POL  CG    CG    0.000  1.000
    8376 POLY   1 POL  CG    CG    0.000  1.000
    8377 POLY   1 POL  CG    CG    0.000  1.000
    8378 POLY   1 POL  CG    CG    0.000  1.000
    8379 POLY   1 POL  CG    CG    0.000  1.000
    8380 POLY   1 POL  CG    CG    0.000  1.000
    8381 POLY   1 POL  CG    CG    0.000  1.000
    8382 POLY   1 POL  CG    CG    0.000  1.000
    8383 POLY   1 POL  CG    CG    0.000  1.000
    8384 POLY   1 POL  CG    CG    0.000  1.000
    8385 POLY   1 POL  CG    CG    0.000  1.000
    8386 POLY   1 POL  CG    CG    0.000  1.000
    8387 POLY   1 POL  CG    CG    0.000  1.000
    8388 POLY   1 POL  CG    CG    0.000  1.000
    8389 POLY   1 POL  CG    CG    0.000  1.000
    8390 POLY   1 POL  CG    CG    0.000  1.000
    8391 POLY   1 POL  CG    CG    0.000  1.000
    8392 POLY   1 POL  CG    CG    0.000  1.000
    8393 POLY   1 POL  CG    CG    0.000  1.000
    8394 POLY   1 POL  CG    CG    0.000  1.000
    8395 POLY   1 POL  CG    CG    0.000  1.000
    8396 POLY   1 POL  CG    CG    0.000  1.000
    8397 POLY   1 POL  CG    CG    0.000  1.000
    8398 POLY   1 POL  CG    CG    0.000  1.000
    8399 POLY   1 POL  CG    CG    0.000  1.000
    8400 POLY   1 POL  CG    CG    0.000  1.000
    8401 POLY   1 POL  CG    CG    0.000  1.000
    8402 POLY   1 POL  CG    CG    0.000  1.000
    8403 POLY   1 POL  CG    CG    0.000  1.000
    8404 POLY   1 POL  CG    CG    0.000  1.000
    8405 POLY   1 POL  CG    CG    0.000  1.000
    8406 POLY   1 POL  CG    CG    0.000  1.000
    8407 POLY   1 POL  CG    CG    0.000  1.000
    8408 POLY   1 POL  CG    CG    0.000  1.000
    8409 POLY   1 POL  CG    CG    0.000  1.000
    8410 POLY   1 POL  CG    CG    0.000  1.000
    8411 POLY   1 POL  CG    CG    0.000  1.000
    8412 POLY   1 POL  CG    CG    0.000  1.000
    8413 POLY   1 POL  CG    CG    0.000  1.000
    8414 POLY   1 POL  CG    CG    0.000  1.000
    8415 POLY   1 POL  CG    CG    0.000  1.000
    8416 POLY   1 POL  CG    CG    0.000  1.000
    8417 POLY   1 POL  CG    CG    0.000  1.000
    8418 POLY   1 POL  CG    CG    0.000  1.000
    8419 POLY   1 POL  CG    CG    0.000  1.000
    8420 POLY   1 POL  CG    CG    0.000  1.000
    8421 POLY   1 POL  CG    CG    0.000  1.000
    8422 POLY   1 POL  CG    CG    0.000  1.000
    8423 POLY   1 POL  CG    CG    0.000  1.000
    8424 POLY   1 POL  CG    CG    0.000  1.000
    8425 POLY   1 POL  CG    CG    0.000  1.000
    8426 POLY   1 POL  CG    CG    0.000  1.000
    8427 POLY   1 POL  CG    CG    0.000  1.000
    8428 POLY   1 POL  CG    CG    0.000  1.000
    8429 POLY   1 POL  CG    CG    0.000  1.000
    8430 POLY   1 POL  CG    CG    0.000  1.000
    8431 POLY   1 POL  CG    CG    0.000  1.000
    8432 POLY   1 POL  CG    CG    0.000  1.000
    8433 POLY   1 POL  CG    CG    0.000  1.000
    8434 POLY   1 POL  CG    CG    0.000  1.000
    8435 POLY   1 POL  CG    CG    0.000  1.000
    8436 POLY   1 POL  CG    CG    0.000  1.000
    8437 POLY   1 POL  CG    CG    0.000  1.000
    8438 POLY   1 POL  CG    CG    0.000  1.000
    8439 POLY   1 POL  CG    CG    0.000  1.000
    8440 POLY   1 POL  CG    CG    0.000  1.000
    8441 POLY   1 POL  CG    CG    0.000  1.000
    8442 POLY   1 POL  CG    CG    0.000  1.000
    8443 POLY   1 POL  CG    CG    0.000  1.000
    8444 POLY   1 POL  CG    CG    0.000  1.000
    8445 POLY   1 POL  CG    CG    0.000  1.000
    8446 POLY   1 POL  CG    CG    0.000  1.000
    8447 POLY   1 POL  CG    CG    0.000  1.000
    8448 POLY   1 POL  CG    CG    0.000  1.000
    8449 POLY   1 POL  CG    CG    0.000  1.000
    8450 POLY   1 POL  CG    CG    0.000  1.000
    8451 POLY   1 POL  CG    CG    0.000  1.000
    8452 POLY   1 POL  CG    CG    0.000  1.000
    8453 POLY   1 POL  CG    CG    0.000  1.000
    8454 POLY   1 POL  CG    CG    0.000  1.000
    8455 POLY   1 POL  CG    CG    0.000  1.000
    8456 POLY   1 POL  CG    CG    0.000  1.000
    8457 POLY   1 POL  CG    CG    0.000  1.000
    8458 POLY   1 POL  CG    CG    0.000  1.000
    8459 POLY   1 POL  CG    CG    0.000  1.000
    8460 POLY   1 POL  CG    CG    0.000  1.000
    8461 POLY   1 POL  CG    CG    0.000  1.000
    8462 POLY   1 POL  CG    CG    0.000  1.000
    8463 POLY   1 POL  CG    CG    0.000  1.000
    8464 POLY   1 POL  CG    CG    0.000  1.000
    8465 POLY   1 POL  CG    CG    0.000  1.000
    8466 POLY   1 POL  CG    CG    0.000  1.000
    8467 POLY   1 POL  CG    CG    0.000  1.000
    8468 POLY   1 POL  CG    CG    0.000  1.000
    8469 POLY   1 POL  CG    CG    0.000  1.000
    8470 POLY   1 POL  CG    CG    0.000  1.000
    8471 POLY   1 POL  CG    CG    0.000  1.000
    8472 POLY   1 POL  CG    CG    0.000  1.000
    8473 POLY   1 POL  CG    CG    0.000  1.000
    8474 POLY   1 POL  CG    CG    0.000  1.000
    8475 POLY   1 POL  CG    CG    0.000  1.000
    8476 POLY   1 POL  CG    CG    0.000  1.000
    8477 POLY   1 POL  CG    CG    0.000  1.000
    8478 POLY   1 POL  CG    CG    0.000  1.000
    8479 POLY   1 POL  CG    CG    0.000  1.000
    8480 POLY   1 POL  CG    CG    0.000  1.000
    8481 POLY   1 POL  CG    CG    0.000  1.000
    8482 POLY   1 POL  CG    CG    0.000  1.000
    8483 POLY   1 POL  CG    CG    0.000  1.000
    8484 POLY   1 POL  CG    CG    0.000  1.000
    8485 POLY   1 POL  CG    CG    0.000  1.000
    8486 POLY   1 POL  CG    CG    0.000  1.000
    8487 POLY   1 POL  CG    CG    0.000  1.000
    8488 POLY   1 POL  CG    CG    0.000  1.000
    8489 POLY   1 POL  CG    CG    0.000  1.000
    8490 POLY   1 POL  CG    CG    0.000  1.000
    8491 POLY   1 POL  CG    CG    0.000  1.000
    8492 POLY   1 POL  CG    CG    0.000  1.000
    8493 POLY   1 POL  CG    CG    0.000  1.000
    8494 POLY   1 POL  CG    CG    0.000  1.000
    8495 POLY   1 POL  CG    CG    0.000  1.000
    8496 POLY   1 POL  CG    CG    0.000  1.000
    8497 POLY   1 POL  CG    CG    0.000  1.000
    8498 POLY   1 POL  CG    CG    0.000  1.000
    8499 POLY   1 POL  CG    CG    0.000  1.000
    8500 POLY   1 POL  CG    CG    0.000  1.000
    8501 POLY   1 POL  CG    CG    0.000  1.000
    8502 POLY   1 POL  CG    CG    0.000  1.000
    8503 POLY   1 POL  CG    CG    0.000  1.000
    8504 POLY   1 POL  CG    CG    0.000  1.000
    8505 POLY   1 POL  CG    CG    0.000  1.000
    8506 POLY   1 POL  CG    CG    0.000  1.000
    8507 POLY   1 POL  CG    CG    0.000  1.000
    8508 POLY   1 POL  CG    CG    0.000  1.000
    8509 POLY   1 POL  CG    CG    0.000  1.000
    8510 POLY   1 POL  CG    CG    0.000  1.000
    8511 POLY   1 POL  CG    CG    0.000  1.000
    8512 POLY   1 POL  CG    CG    0.000  1.000
    8513 POLY   1 POL  CG    CG    0.000  1.000
    8514 POLY   1 POL  CG    CG    0.000  1.000
    8515 POLY   1 POL  CG    CG    0.000  1.000
    8516 POLY   1 POL  CG    CG    0.000  1.000
    8517 POLY   1 POL  CG    CG    0.000  1.000
    8518 POLY   1 POL  CG    CG    0.000  1.000
    8519 POLY   1 POL  CG    CG    0.000  1.000
    8520 POLY   1 POL  CG    CG    0.000  1.000
    8521 POLY   1 POL  CG    CG    0.000  1.000
    8522 POLY   1 POL  CG    CG    0.000  1.000
    8523 POLY   1 POL  CG    CG    0.000  1.000
    8524 POLY   1 POL  CG    CG    0.000  1.000
    8525 POLY   1 POL  CG    CG    0.000  1.000
    8526 POLY   1 POL  CG    CG    0.000  1.000
    8527 POLY   1 POL  CG    CG    0.000  1.000
    8528 POLY   1 POL  CG    CG    0.000  1.000
    8529 POLY   1 POL  CG    CG    0.000  1.000
    8530 POLY   1 POL  CG    CG    0.000  1.000
    8531 POLY   1 POL  CG    CG    0.000  1.000
    8532 POLY   1 POL  CG    CG    0.000  1.000
    8533 POLY   1 POL  CG    CG    0.000  1.000
    8534 POLY   1 POL  CG    CG    0.000  1.000
    8535 POLY   1 POL  CG    CG    0.000  1.000
    8536 POLY   1 POL  CG    CG    0.000  1.000
    8537 POLY   1 POL  CG    CG    0.000  1.000
    8538 POLY   1 POL  CG    CG    0.000  1.000
    8539 POLY   1 POL  CG    CG    0.000  1.000
    8540 POLY   1 POL  CG    CG    0.000  1.000
    8541 POLY   1 POL  CG    CG    0.000  1.000
    8542 POLY   1 POL  CG    CG    0.000  1.000
    8543 POLY   1 POL  CG    CG    0.000  1.000
    8544 POLY   1 POL  CG    CG    0.000  1.000
    8545 POLY   1 POL  CG    CG    0.000  1.000
    8546 POLY   1 POL  CG    CG    0.000  1.000
    8547 POLY   1 POL  CG    CG    0.000  1.000
    8548 POLY   1 POL  CG    CG    0.000  1.000
    8549 POLY   1 POL  CG    CG    0.000  1.000
    8550 POLY   1 POL  CG    CG    0.000  1.000
    8551 POLY   1 POL  CG    CG    0.000  1.000
    8552 POLY   1 POL  CG    CG    0.000  1.000
    8553 POLY   1 POL  CG    CG    0.000  1.000
    8554 POLY   1 POL  CG    CG    0.000  1.000
    8555 POLY   1 POL  CG    CG    0.000  1.000
    8556 POLY   1 POL  CG    CG    0.000  1.000
    8557 POLY   1 POL  CG    CG    0.000  1.000
    8558 POLY   1 POL  CG    CG    0.000  1.000
    8559 POLY   1 POL  CG    CG    0.000  1.000
    8560 POLY   1 POL  CG    CG    0.000  1.000
    8561 POLY   1 POL  CG    CG    0.000  1.000
    8562 POLY   1 POL  CG    CG    0.000  1.000
    8563 POLY   1 POL  CG    CG    0.000  1.000
    8564 POLY   1 POL  CG    CG    0.000  1.000
    8565 POLY   1 POL  CG    CG    0.000  1.000
    8566 POLY   1 POL  CG    CG    0.000  1.000
    8567 POLY   1 POL  CG    CG    0.000  1.000
    8568 POLY   1 POL  CG    CG    0.000  1.000
    8569 POLY   1 POL  CG    CG    0.000  1.000
    8570 POLY   1 POL  CG    CG    0.000  1.000
    8571 POLY   1 POL  CG    CG    0.000  1.000
    8572 POLY   1 POL  CG    CG    0.000  1.000
    8573 POLY   1 POL  CG    CG    0.000  1.000
    8574 POLY   1 POL  CG    CG    0.000  1.000
    8575 POLY   1 POL  CG    CG    0.000  1.000
    8576 POLY   1 POL  CG    CG    0.000  1.000
    8577 POLY   1 POL  CG    CG    0.000  1.000
    8578 POLY   1 POL  CG    CG    0.000  1.000
    8579 POLY   1 POL  CG    CG    0.000  1.000
    8580 POLY   1 POL  CG    CG    0.000  1.000
    8581 POLY   1 POL  CG    CG    0.000  1.000
    8582 POLY   1 POL  CG    CG    0.000  1.000
    8583 POLY   1 POL  CG    CG    0.000  1.000
    8584 POLY   1 POL  CG    CG    0.000  1.000
    8585 POLY   1 POL  CG    CG    0.000  1.000
    8586 POLY   1 POL  CG    CG    0.000  1.000
    8587 POLY   1 POL  CG    CG    0.000  1.000
    8588 POLY   1 POL  CG    CG    0.000  1.000
    8589 POLY   1 POL  CG    CG    0.000  1.000
    8590 POLY   1 POL  CG    CG    0.000  1.000
    8591 POLY   1 POL  CG    CG    0.000  1.000
    8592 POLY   1 POL  CG    CG    0.000  1.000
    8593 POLY   1 POL  CG    CG    0.000  1.000
    8594 POLY   1 POL  CG    CG    0.000  1.000
    8595 POLY   1 POL  CG    CG    0.000  1.000
    8596 POLY   1 POL  CG    CG    0.000  1.000
    8597 POLY   1 POL  CG    CG    0.000  1.000
    8598 POLY   1 POL  CG    CG    0.000  1.000
    8599 POLY   1 POL  CG    CG    0.000  1.000
    8600 POLY   1 POL  CG    CG    0.000  1.000
    8601 POLY   1 POL  CG    CG    0.000  1.000
    8602 POLY   1 POL  CG    CG    0.000  1.000
    8603 POLY   1 POL  CG    CG    0.000  1.000
    8604 POLY   1 POL  CG    CG    0.000  1.000
    8605 POLY   1 POL  CG    CG    0.000  1.000
    8606 POLY   1 POL  CG    CG    0.000  1.000
    8607 POLY   1 POL  CG    CG    0.000  1.000
    8608 POLY   1 POL  CG    CG    0.000  1.000
    8609 POLY   1 POL  CG    CG    0.000  1.000
    8610 POLY   1 POL  CG    CG    0.000  1.000
    8611 POLY   1 POL  CG    CG    0.000  1.000
    8612 POLY   1 POL  CG    CG    0.000  1.000
    8613 POLY   1 POL  CG    CG    0.000  1.000
    8614 POLY   1 POL  CG    CG    0.000  1.000
    8615 POLY   1 POL  CG    CG    0.000  1.000
    8616 POLY   1 POL  CG    CG    0.000  1.000
    8617 POLY   1 POL  CG    CG    0.000  1.000
    8618 POLY   1 POL  CG    CG    0.000  1.000
    8619 POLY   1 POL  CG    CG    0.000  1.000
    8620 POLY   1 POL  CG    CG    0.000  1.000
    8621 POLY   1 POL  CG    CG    0.000  1.000
    8622 POLY   1 POL  CG    CG    0.000  1.000
    8623 POLY   1 POL  CG    CG    0.000  1.000
    8624 POLY   1 POL  CG    CG    0.000  1.000
    8625 POLY   1 POL  CG    CG    0.000  1.000
    8626 POLY   1 POL  CG    CG    0.000  1.000
    8627 POLY   1 POL  CG    CG    0.000  1.000
    8628 POLY   1 POL  CG    CG    0.000  1.000
    8629 POLY   1 POL  CG    CG    0.000  1.000
    8630 POLY   1 POL  CG    CG    0.000  1.000
    8631 POLY   1 POL  CG    CG    0.000  1.000
    8632 POLY   1 POL  CG    CG    0.000  1.000
    8633 POLY   1 POL  CG    CG    0.000  1.000
    8634 POLY   1 POL  CG    CG    0.000  1.000
    8635 POLY   1 POL  CG    CG    0.000  1.000
    8636 POLY   1 POL  CG    CG    0.000  1.000
    8637 POLY   1 POL  CG    CG    0.000  1.000
    8638 POLY   1 POL  CG    CG    0.000  1.000
    8639 POLY   1 POL  CG    CG    0.000  1.000
    8640 POLY   1 POL  CG    CG    0.000  1.000
    8641 POLY   1 POL  CG    CG    0.000  1.000
    8642 POLY   1 POL  CG    CG    0.000  1.000
    8643 POLY   1 POL  CG    CG    0.000  1.000
    8644 POLY   1 POL  CG    CG    0.000  1.000
    8645 POLY   1 POL  CG    CG    0.000  1.000
    8646 POLY   1 POL  CG    CG    0.000  1.000
    8647 POLY   1 POL  CG    CG    0.000  1.000
    8648 POLY   1 POL  CG    CG    0.000  1.000
    8649 POLY   1 POL  CG    CG    0.000  1.000
    8650 POLY   1 POL  CG    CG    0.000  1.000
    8651 POLY   1 POL  CG    CG    0.000  1.000
    8652 POLY   1 POL  CG    CG    0.000  1.000
    8653 POLY   1 POL  CG    CG    0.000  1.000
    8654 POLY   1 POL  CG    CG    0.000  1.000
    8655 POLY   1 POL  CG    CG    0.000  1.000
    8656 POLY   1 POL  CG    CG    0.000  1.000
    8657 POLY   1 POL  CG    CG    0.000  1.000
    8658 POLY   1 POL  CG    CG    0.000  1.000
    8659 POLY   1 POL  CG    CG    0.000  1.000
    8660 POLY   1 POL  CG    CG    0.000  1.000
    8661 POLY   1 POL  CG    CG    0.000  1.000
    8662 POLY   1 POL  CG    CG    0.000  1.000
    8663 POLY   1 POL  CG    CG    0.000  1.000
    8664 POLY   1 POL  CG    CG    0.000  1.000
    8665 POLY   1 POL  CG    CG    0.000  1.000
    8666 POLY   1 POL  CG    CG    0.000  1.000
    8667 POLY   1 POL  CG    CG    0.000  1.000
    8668 POLY   1 POL  CG    CG    0.000  1.000
    8669 POLY   1 POL  CG    CG    0.000  1.000
    8670 POLY   1 POL  CG    CG    0.000  1.000
    8671 POLY   1 POL  CG    CG    0.000  1.000
    8672 POLY   1 POL  CG    CG    0.000  1.000
    8673 POLY   1 POL  CG    CG    0.000  1.000
    8674 POLY   1 POL  CG    CG    0.000  1.000
    8675 POLY   1 POL  CG    CG    0.000  1.000
    8676 POLY   1 POL  CG    CG    0.000  1.000
    8677 POLY   1 POL  CG    CG    0.000  1.000
    8678 POLY   1 POL  CG    CG    0.000  1.000
    8679 POLY   1 POL  CG    CG    0.000  1.000
    8680 POLY   1 POL  CG    CG    0.000  1.000
    8681 POLY   1 POL  CG    CG    0.000  1.000
    8682 POLY   1 POL  CG    CG    0.000  1.000
    8683 POLY   1 POL  CG    CG    0.000  1.000
    8684 POLY   1 POL  CG    CG    0.000  1.000
    8685 POLY   1 POL  CG    CG    0.000  1.000
    8686 POLY   1 POL  CG    CG    0.000  1.000
    8687 POLY   1 POL  CG    CG    0.000  1.000
    8688 POLY   1 POL  CG    CG    0.000  1.000
    8689 POLY   1 POL  CG    CG    0.000  1.000
    8690 POLY   1 POL  CG    CG    0.000  1.000
    8691 POLY   1 POL  CG    CG    0.000  1.000
    8692 POLY   1 POL  CG    CG    0.000  1.000
    8693 POLY   1 POL  CG    CG    0.000  1.000
    8694 POLY   1 POL  CG    CG    0.000  1.000
    8695 POLY   1 POL  CG    CG    0.000  1.000
    8696 POLY   1 POL  CG    CG    0.000  1.000
    8697 POLY   1 POL  CG    CG    0.000  1.000
    8698 POLY   1 POL  CG    CG    0.000  1.000
    8699 POLY   1 POL  CG    CG    0.000  1.000
    8700 POLY   1 POL  CG    CG    0.000  1.000
    8701 POLY   1 POL  CG    CG    0.000  1.000
    8702 POLY   1 POL  CG    CG    0.000  1.000
    8703 POLY   1 POL  CG    CG    0.000  1.000
    8704 POLY   1 POL  CG    CG    0.000  1.000
    8705 POLY   1 POL  CG    CG    0.000  1.000
    8706 POLY   1 POL  CG    CG    0.000  1.000
    8707 POLY   1 POL  CG    CG    0.000  1.000
    8708 POLY   1 POL  CG    CG    0.000  1.000
    8709 POLY   1 POL  CG    CG    0.000  1.000
    8710 POLY   1 POL  CG    CG    0.000  1.000
    8711 POLY   1 POL  CG    CG    0.000  1.000
    8712 POLY   1 POL  CG    CG    0.000  1.000
    8713 POLY   1 POL  CG    CG    0.000  1.000
    8714 POLY   1 POL  CG    CG    0.000  1.000
    8715 POLY   1 POL  CG    CG    0.000  1.000
    8716 POLY   1 POL  CG    CG    0.000  1.000
    8717 POLY   1 POL  CG    CG    0.000  1.000
    8718 POLY   1 POL  CG    CG    0.000  1.000
    8719 POLY   1 POL  CG    CG    0.000  1.000
    8720 POLY   1 POL  CG    CG    0.000  1.000
    8721 POLY   1 POL  CG    CG    0.000  1.000
    8722 POLY   1 POL  CG    CG    0.000  1.000
    8723 POLY   1 POL  CG    CG    0.000  1.000
    8724 POLY   1 POL  CG    CG    0.000  1.000
    8725 POLY   1 POL  CG    CG    0.000  1.000
    8726 POLY   1 POL  CG    CG    0.000  1.000
    8727 POLY   1 POL  CG    CG    0.000  1.000
    8728 POLY   1 POL  CG    CG    0.000  1.000
    8729 POLY   1 POL  CG    CG    0.000  1.000
    8730 POLY   1 POL  CG    CG    0.000  1.000
    8731 POLY   1 POL  CG    CG    0.000  1.000
    8732 POLY   1 POL  CG    CG    0.000  1.000
    8733 POLY   1 POL  CG    CG    0.000  1.000
    8734 POLY   1 POL  CG    CG    0.000  1.000
    8735 POLY   1 POL  CG    CG    0.000  1.000
    8736 POLY   1 POL  CG    CG    0.000  1.000
    8737 POLY   1 POL  CG    CG    0.000  1.000
    8738 POLY   1 POL  CG    CG    0.000  1.000
    8739 POLY   1 POL  CG    CG    0.000  1.000
    8740 POLY   1 POL  CG    CG    0.000  1.000
    8741 POLY   1 POL  CG    CG    0.000  1.000
    8742 POLY   1 POL  CG    CG    0.000  1.000
    8743 POLY   1 POL  CG    CG    0.000  1.000
    8744 POLY   1 POL  CG    CG    0.000  1.000
    8745 POLY   1 POL  CG    CG    0.000  1.000
    8746 POLY   1 POL  CG    CG    0.000  1.000
    8747 POLY   1 POL  CG    CG    0.000  1.000
    8748 POLY   1 POL  CG    CG    0.000  1.000
    8749 POLY   1 POL  CG    CG    0.000  1.000
    8750 POLY   1 POL  CG    CG    0.000  1.000
    8751 POLY   1 POL  CG    CG    0.000  1.000
    8752 POLY   1 POL  CG    CG    0.000  1.000
    8753 POLY   1 POL  CG    CG    0.000  1.000
    8754 POLY   1 POL  CG    CG    0.000  1.000
    8755 POLY   1 POL  CG    CG    0.000  1.000
    8756 POLY   1 POL  CG    CG    0.000  1.000
    8757 POLY   1 POL  CG    CG    0.000  1.000
    8758 POLY   1 POL  CG    CG    0.000  1.000
    8759 POLY   1 POL  CG    CG    0.000  1.000
    8760 POLY   1 POL  CG    CG    0.000  1.000
    8761 POLY   1 POL  CG    CG    0.000  1.000
    8762 POLY   1 POL  CG    CG    0.000  1.000
    8763 POLY   1 POL  CG    CG    0.000  1.000
    8764 POLY   1 POL  CG    CG    0.000  1.000
    8765 POLY   1 POL  CG    CG    0.000  1.000
    8766 POLY   1 POL  CG    CG    0.000  1.000
    8767 POLY   1 POL  CG    CG    0.000  1.000
    8768 POLY   1 POL  CG    CG    0.000  1.000
    8769 POLY   1 POL  CG    CG    0.000  1.000
    8770 POLY   1 POL  CG    CG    0.000  1.000
    8771 POLY   1 POL  CG    CG    0.000  1.000
    8772 POLY   1 POL  CG    CG    0.000  1.000
    8773 POLY   1 POL  CG    CG    0.000  1.000
    8774 POLY   1 POL  CG    CG    0.000  1.000
    8775 POLY   1 POL  CG    CG    0.000  1.000
    8776 POLY   1 POL  CG    CG    0.000  1.000
    8777 POLY   1 POL  CG    CG    0.000  1.000
    8778 POLY   1 POL  CG    CG    0.000  1.000
    8779 POLY   1 POL  CG    CG    0.000  1.000
    8780 POLY   1 POL  CG    CG    0.000  1.000
    8781 POLY   1 POL  CG    CG    0.000  1.000
    8782 POLY   1 POL  CG    CG    0.000  1.000
    8783 POLY   1 POL  CG    CG    0.000  1.000
    8784 POLY   1 POL  CG    CG    0.000  1.000
    8785 POLY   1 POL  CG    CG    0.000  1.000
    8786 POLY   1 POL  CG    CG    0.000  1.000
    8787 POLY   1 POL  CG    CG    0.000  1.000
    8788 POLY   1 POL  CG    CG    0.000  1.000
    8789 POLY   1 POL  CG    CG    0.000  1.000
    8790 POLY   1 POL  CG    CG    0.000  1.000
    8791 POLY   1 POL  CG    CG    0.000  1.000
    8792 POLY   1 POL  CG    CG    0.000  1.000
    8793 POLY   1 POL  CG    CG    0.000  1.000
    8794 POLY   1 POL  CG    CG    0.000  1.000
    8795 POLY   1 POL  CG    CG    0.000  1.000
    8796 POLY   1 POL  CG    CG    0.000  1.000
    8797 POLY   1 POL  CG    CG    0.000  1.000
    8798 POLY   1 POL  CG    CG    0.000  1.000
    8799 POLY   1 POL  CG    CG    0.000  1.000
    8800 POLY   1 POL  CG    CG    0.000  1.000
    8801 POLY   1 POL  CG    CG    0.000  1.000
    8802 POLY   1 POL  CG    CG    0.000  1.000
    8803 POLY   1 POL  CG    CG    0.000  1.000
    8804 POLY   1 POL  CG    CG    0.000  1.000
    8805 POLY   1 POL  CG    CG    0.000  1.000
    8806 POLY   1 POL  CG    CG    0.000  1.000
    8807 POLY   1 POL  CG    CG    0.000  1.000
    8808 POLY   1 POL  CG    CG    0.000  1.000
    8809 POLY   1 POL  CG    CG    0.000  1.000
    8810 POLY   1 POL  CG    CG    0.000  1.000
    8811 POLY   1 POL  CG    CG    0.000  1.000
    8812 POLY   1 POL  CG    CG    0.000  1.000
    8813 POLY   1 POL  CG    CG    0.000  1.000
    8814 POLY   1 POL  CG    CG    0.000  1.000
    8815 POLY   1 POL  CG    CG    0.000  1.000
    8816 POLY   1 POL  CG    CG    0.000  1.000
    8817 POLY   1 POL  CG    CG    0.000  1.000
    8818 POLY   1 POL  CG    CG    0.000  1.000
    8819 POLY   1 POL  CG    CG    0.000  1.000
    8820 POLY   1 POL  CG    CG    0.000  1.000
    8821 POLY   1 POL  CG    CG    0.000  1.000
    8822 POLY   1 POL  CG    CG    0.000  1.000
    8823 POLY   1 POL  CG    CG    0.000  1.000
    8824 POLY   1 POL  CG    CG    0.000  1.000
    8825 POLY   1 POL  CG    CG    0.000  1.000
    8826 POLY   1 POL  CG    CG    0.000  1.000
    8827 POLY   1 POL  CG    CG    0.000  1.000
    8828 POLY   1 POL  CG    CG    0.000  1.000
    8829 POLY   1 POL  CG    CG    0.000  1.000
    8830 POLY   1 POL  CG    CG    0.000  1.000
    8831 POLY   1 POL  CG    CG    0.000  1.000
    8832 POLY   1 POL  CG    CG    0.000  1.000
    8833 POLY   1 POL  CG    CG    0.000  1.000
    8834 POLY   1 POL  CG    CG    0.000  1.000
    8835 POLY   1 POL  CG    CG    0.000  1.000
    8836 POLY   1 POL  CG    CG    0.000  1.000
    8837 POLY   1 POL  CG    CG    0.000  1.000
    8838 POLY   1 POL  CG    CG    0.000  1.000
    8839 POLY   1 POL  CG    CG    0.000  1.000
    8840 POLY   1 POL  CG    CG    0.000  1.000
    8841 POLY   1 POL  CG    CG    0.000  1.000
    8842 POLY   1 POL  CG    CG    0.000  1.000
    8843 POLY   1 POL  CG    CG    0.000  1.000
    8844 POLY   1 POL  CG    CG    0.000  1.000
    8845 POLY   1 POL  CG    CG    0.000  1.000
    8846 POLY   1 POL  CG    CG    0.000  1.000
    8847 POLY   1 POL  CG    CG    0.000  1.000
    8848 POLY   1 POL  CG    CG    0.000  1.000
    8849 POLY   1 POL  CG    CG    0.000  1.000
    8850 POLY   1 POL  CG    CG    0.000  1.000
    8851 POLY   1 POL  CG    CG    0.000  1.000
    8852 POLY   1 POL  CG    CG    0.000  1.000
    8853 POLY   1 POL  CG    CG    0.000  1.000
    8854 POLY   1 POL  CG    CG    0.000  1.000
    8855 POLY   1 POL  CG    CG    0.000  1.000
    8856 POLY   1 POL  CG    CG    0.000  1.000
    8857 POLY   1 POL  CG    CG    0.000  1.000
    8858 POLY   1 POL  CG    CG    0.000  1.000
    8859 POLY   1 POL  CG    CG    0.000  1.000
    8860 POLY   1 POL  CG    CG    0.000  1.000
    8861 POLY   1 POL  CG    CG    0.000  1.000
    8862 POLY   1 POL  CG    CG    0.000  1.000
    8863 POLY   1 POL  CG    CG    0.000  1.000
    8864 POLY   1 POL  CG    CG    0.000  1.000
    8865 POLY   1 POL  CG    CG    0.000  1.000
    8866 POLY   1 POL  CG    CG    0.000  1.000
    8867 POLY   1 POL  CG    CG    0.000  1.000
    8868 POLY   1 POL  CG    CG    0.000  1.000
    8869 POLY   1 POL  CG    CG    0.000  1.000
    8870 POLY   1 POL  CG    CG    0.000  1.000
    8871 POLY   1 POL  CG    CG    0.000  1.000
    8872 POLY   1 POL  CG    CG    0.000  1.000
    8873 POLY   1 POL  CG    CG    0.000  1.000
    8874 POLY   1 POL  CG    CG    0.000  1.000
    8875 POLY   1 POL  CG    CG    0.000  1.000
    8876 POLY   1 POL  CG    CG    0.000  1.000
    8877 POLY   1 POL  CG    CG    0.000  1.000
    8878 POLY   1 POL  CG    CG    0.000  1.000
    8879 POLY   1 POL  CG    CG    0.000  1.000
    8880 POLY   1 POL  CG    CG    0.000  1.000
    8881 POLY   1 POL  CG    CG    0.000  1.000
    8882 POLY   1 POL  CG    CG    0.000  1.000
    8883 POLY   1 POL  CG    CG    0.000  1.000
    8884 POLY   1 POL  CG    CG    0.000  1.000
    8885 POLY   1 POL  CG    CG    0.000  1.000
    8886 POLY   1 POL  CG    CG    0.000  1.000
    8887 POLY   1 POL  CG    CG    0.000  1.000
    8888 POLY   1 POL  CG    CG    0.000  1.000
    8889 POLY   1 POL  CG    CG    0.000  1.000
    8890 POLY   1 POL  CG    CG    0.000  1.000
    8891 POLY   1 POL  CG    CG    0.000  1.000
    8892 POLY   1 POL  CG    CG    0.000  1.000
    8893 POLY   1 POL  CG    CG    0.000  1.000
    8894 POLY   1 POL  CG    CG    0.000  1.000
    8895 POLY   1 POL  CG    CG    0.000  1.000
    8896 POLY   1 POL  CG    CG    0.000  1.000
    8897 POLY   1 POL  CG    CG    0.000  1.000
    8898 POLY   1 POL  CG    CG    0.000  1.000
    8899 POLY   1 POL  CG    CG    0.000  1.000
    8900 POLY   1 POL  CG    CG    0.000  1.000
    8901 POLY   1 POL  CG    CG    0.000  1.000
    8902 POLY   1 POL  CG    CG    0.000  1.000
    8903 POLY   1 POL  CG    CG    0.000  1.000
    8904 POLY   1 POL  CG    CG    0.000  1.000
    8905 POLY   1 POL  CG    CG    0.000  1.000
    8906 POLY   1 POL  CG    CG    0.000  1.000
    8907 POLY   1 POL  CG    CG    0.000  1.000
    8908 POLY   1 POL  CG    CG    0.000  1.000
    8909 POLY   1 POL  CG    CG    0.000  1.000
    8910 POLY   1 POL  CG    CG    0.000  1.000
    8911 POLY   1 POL  CG    CG    0.000  1.000
    8912 POLY   1 POL  CG    CG    0.000  1.000
    8913 POLY   1 POL  CG    CG    0.000  1.000
    8914 POLY   1 POL  CG    CG    0.000  1.000
    8915 POLY   1 POL  CG    CG    0.000  1.000
    8916 POLY   1 POL  CG    CG    0.000  1.000
    8917 POLY   1 POL  CG    CG    0.000  1.000
    8918 POLY   1 POL  CG    CG    0.000  1.000
    8919 POLY   1 POL  CG    CG    0.000  1.000
    8920 POLY   1 POL  CG    CG    0.000  1.000
    8921 POLY   1 POL  CG    CG    0.000  1.000
    8922 POLY   1 POL  CG    CG    0.000  1.000
    8923 POLY   1 POL  CG    CG    0.000  1.000
    8924 POLY   1 POL  CG    CG    0.000  1.000
    8925 POLY   1 POL  CG    CG    0.000  1.000
    8926 POLY   1 POL  CG    CG    0.000  1.000
    8927 POLY   1 POL  CG    CG    0.000  1.000
    8928 POLY   1 POL  CG    CG    0.000  1.000
    8929 POLY   1 POL  CG    CG    0.000  1.000
    8930 POLY   1 POL  CG    CG    0.000  1.000
    8931 POLY   1 POL  CG    CG    0.000  1.000
    8932 POLY   1 POL  CG    CG    0.000  1.000
    8933 POLY   1 POL  CG    CG    0.000  1.000
    8934 POLY   1 POL  CG    CG    0.000  1.000
    8935 POLY   1 POL  CG    CG    0.000  1.000
    8936 POLY   1 POL  CG    CG    0.000  1.000
    8937 POLY   1 POL  CG    CG    0.000  1.000
    8938 POLY   1 POL  CG    CG    0.000  1.000
    8939 POLY   1 POL  CG    CG    0.000  1.000
    8940 POLY   1 POL  CG    CG    0.000  1.000
    8941 POLY   1 POL  CG    CG    0.000  1.000
    8942 POLY   1 POL  CG    CG    0.000  1.000
    8943 POLY   1 POL  CG    CG    0.000  1.000
    8944 POLY   1 POL  CG    CG    0.000  1.000
    8945 POLY   1 POL  CG    CG    0.000  1.000
    8946 POLY   1 POL  CG    CG    0.000  1.000
    8947 POLY   1 POL  CG    CG    0.000  1.000
    8948 POLY   1 POL  CG    CG    0.000  1.000
    8949 POLY   1 POL  CG    CG    0.000  1.000
    8950 POLY   1 POL  CG    CG    0.000  1.000
    8951 POLY   1 POL  CG    CG    0.000  1.000
    8952 POLY   1 POL  CG    CG    0.000  1.000
    8953 POLY   1 POL  CG    CG    0.000  1.000
    8954 POLY   1 POL  CG    CG    0.000  1.000
    8955 POLY   1 POL  CG    CG    0.000  1.000
    8956 POLY   1 POL  CG    CG    0.000  1.000
    8957 POLY   1 POL  CG    CG    0.000  1.000
    8958 POLY   1 POL  CG    CG    0.000  1.000
    8959 POLY   1 POL  CG    CG    0.000  1.000
    8960 POLY   1 POL  CG    CG    0.000  1.000
    8961 POLY   1 POL  CG    CG    0.000  1.000
    8962 POLY   1 POL  CG    CG    0.000  1.000
    8963 POLY   1 POL  CG    CG    0.000  1.000
    8964 POLY   1 POL  CG    CG    0.000  1.000
    8965 POLY   1 POL  CG    CG    0.000  1.000
    8966 POLY   1 POL  CG    CG    0.000  1.000
    8967 POLY   1 POL  CG    CG    0.000  1.000
    8968 POLY   1 POL  CG    CG    0.000  1.000
    8969 POLY   1 POL  CG    CG    0.000  1.000
    8970 POLY   1 POL  CG    CG    0.000  1.000
    8971 POLY   1 POL  CG    CG    0.000  1.000
    8972 POLY   1 POL  CG    CG    0.000  1.000
    8973 POLY   1 POL  CG    CG    0.000  1.000
    8974 POLY   1 POL  CG    CG    0.000  1.000
    8975 POLY   1 POL  CG    CG    0.000  1.000
    8976 POLY   1 POL  CG    CG    0.000  1.000
    8977 POLY   1 POL  CG    CG    0.000  1.000
    8978 POLY   1 POL  CG    CG    0.000  1.000
    8979 POLY   1 POL  CG    CG    0.000  1.000
    8980 POLY   1 POL  CG    CG    0.000  1.000
    8981 POLY   1 POL  CG    CG    0.000  1.000
    8982 POLY   1 POL  CG    CG    0.000  1.000
    8983 POLY   1 POL  CG    CG    0.000  1.000
    8984 POLY   1 POL  CG    CG    0.000  1.000
    8985 POLY   1 POL  CG    CG    0.000  1.000
    8986 POLY   1 POL  CG    CG    0.000  1.000
    8987 POLY   1 POL  CG    CG    0.000  1.000
    8988 POLY   1 POL  CG    CG    0.000  1.000
    8989 POLY   1 POL  CG    CG    0.000  1.000
    8990 POLY   1 POL  CG    CG    0.000  1.000
    8991 POLY   1 POL  CG    CG    0.000  1.000
    8992 POLY   1 POL  CG    CG    0.000  1.000
    8993 POLY   1 POL  CG    CG    0.000  1.000
    8994 POLY   1 POL  CG    CG    0.000  1.000
    8995 POLY   1 POL  CG    CG    0.000  1.000
    8996 POLY   1 POL  CG    CG    0.000  1.000
    8997 POLY   1 POL  CG    CG    0.000  1.000
    8998 POLY   1 POL  CG    CG    0.000  1.000
    8999 POLY   1 POL  CG    CG    0.000  1.000
    9000 POLY   1 POL  CG    CG    0.000  1.000
    9001 POLY   1 POL  CG    CG    0.000  1.000
    9002 POLY   1 POL  CG    CG    0.000  1.000
    9003 POLY   1 POL  CG    CG    0.000  1.000
    9004 POLY   1 POL  CG    CG    0.000  1.000
    9005 POLY   1 POL  CG    CG    0.000  1.000
    9006 POLY   1 POL  CG    CG    0.000  1.000
    9007 POLY   1 POL  CG    CG    0.000  1.000
    9008 POLY   1 POL  CG    CG    0.000  1.000
    9009 POLY   1 POL  CG    CG    0.000  1.000
    9010 POLY   1 POL  CG    CG    0.000  1.000
    9011 POLY   1 POL  CG    CG    0.000  1.000
    9012 POLY   1 POL  CG    CG    0.000  1.000
    9013 POLY   1 POL  CG    CG    0.000  1.000
    9014 POLY   1 POL  CG    CG    0.000  1.000
    9015 POLY   1 POL  CG    CG    0.000  1.000
    9016 POLY   1 POL  CG    CG    0.000  1.000
    9017 POLY   1 POL  CG    CG    0.000  1.000
    9018 POLY   1 POL  CG    CG    0.000  1.000
    9019 POLY   1 POL  CG    CG    0.000  1.000
    9020 POLY   1 POL  CG    CG    0.000  1.000
    9021 POLY   1 POL  CG    CG    0.000  1.000
    9022 POLY   1 POL  CG    CG    0.000  1.000
    9023 POLY   1 POL  CG    CG    0.000  1.000
    9024 POLY   1 POL  CG    CG    0.000  1.000
    9025 POLY   1 POL  CG    CG    0.000  1.000
    9026 POLY   1 POL  CG    CG    0.000  1.000
    9027 POLY   1 POL  CG    CG    0.000  1.000
    9028 POLY   1 POL  CG    CG    0.000  1.000
    9029 POLY   1 POL  CG    CG    0.000  1.000
    9030 POLY   1 POL  CG    CG    0.000  1.000
    9031 POLY   1 POL  CG    CG    0.000  1.000
    9032 POLY   1 POL  CG    CG    0.000  1.000
    9033 POLY   1 POL  CG    CG    0.000  1.000
    9034 POLY   1 POL  CG    CG    0.000  1.000
    9035 POLY   1 POL  CG    CG    0.000  1.000
    9036 POLY   1 POL  CG    CG    0.000  1.000
    9037 POLY   1 POL  CG    CG    0.000  1.000
    9038 POLY   1 POL  CG    CG    0.000  1.000
    9039 POLY   1 POL  CG    CG    0.000  1.000
    9040 POLY   1 POL  CG    CG    0.000  1.000
    9041 POLY   1 POL  CG    CG    0.000  1.000
    9042 POLY   1 POL  CG    CG    0.000  1.000
    9043 POLY   1 POL  CG    CG    0.000  1.000
    9044 POLY   1 POL  CG    CG    0.000  1.000
    9045 POLY   1 POL  CG    CG    0.000  1.000
    9046 POLY   1 POL  CG    CG    0.000  1.000
    9047 POLY   1 POL  CG    CG    0.000  1.000
    9048 POLY   1 POL  CG    CG    0.000  1.000
    9049 POLY   1 POL  CG    CG    0.000  1.000
    9050 POLY   1 POL  CG    CG    0.000  1.000
    9051 POLY   1 POL  CG    CG    0.000  1.000
    9052 POLY   1 POL  CG    CG    0.000  1.000
    9053 POLY   1 POL  CG    CG    0.000  1.000
    9054 POLY   1 POL  CG    CG    0.000  1.000
    9055 POLY   1 POL  CG    CG    0.000  1.000
    9056 POLY   1 POL  CG    CG    0.000  1.000
    9057 POLY   1 POL  CG    CG    0.000  1.000
    9058 POLY   1 POL  CG    CG    0.000  1.000
    9059 POLY   1 POL  CG    CG    0.000  1.000
    9060 POLY   1 POL  CG    CG    0.000  1.000
    9061 POLY   1 POL  CG    CG    0.000  1.000
    9062 POLY   1 POL  CG    CG    0.000  1.000
    9063 POLY   1 POL  CG    CG    0.000  1.000
    9064 POLY   1 POL  CG    CG    0.000  1.000
    9065 POLY   1 POL  CG    CG    0.000  1.000
    9066 POLY   1 POL  CG    CG    0.000  1.000
    9067 POLY   1 POL  CG    CG    0.000  1.000
    9068 POLY   1 POL  CG    CG    0.000  1.000
    9069 POLY   1 POL  CG    CG    0.000  1.000
    9070 POLY   1 POL  CG    CG    0.000  1.000
    9071 POLY   1 POL  CG    CG    0.000  1.000
    9072 POLY   1 POL  CG    CG    0.000  1.000
    9073 POLY   1 POL  CG    CG    0.000  1.000
    9074 POLY   1 POL  CG    CG    0.000  1.000
    9075 POLY   1 POL  CG    CG    0.000  1.000
    9076 POLY   1 POL  CG    CG    0.000  1.000
    9077 POLY   1 POL  CG    CG    0.000  1.000
    9078 POLY   1 POL  CG    CG    0.000  1.000
    9079 POLY   1 POL  CG    CG    0.000  1.000
    9080 POLY   1 POL  CG    CG    0.000  1.000
    9081 POLY   1 POL  CG    CG    0.000  1.000
    9082 POLY   1 POL  CG    CG    0.000  1.000
    9083 POLY   1 POL  CG    CG    0.000  1.000
    9084 POLY   1 POL  CG    CG    0.000  1.000
    9085 POLY   1 POL  CG    CG    0.000  1.000
    9086 POLY   1 POL  CG    CG    0.000  1.000
    9087 POLY   1 POL  CG    CG    0.000  1.000
    9088 POLY   1 POL  CG    CG    0.000  1.000
    9089 POLY   1 POL  CG    CG    0.000  1.000
    9090 POLY   1 POL  CG    CG    0.000  1.000
    9091 POLY   1 POL  CG    CG    0.000  1.000
    9092 POLY   1 POL  CG    CG    0.000  1.000
    9093 POLY   1 POL  CG    CG    0.000  1.000
    9094 POLY   1 POL  CG    CG    0.000  1.000
    9095 POLY   1 POL  CG    CG    0.000  1.000
    9096 POLY   1 POL  CG    CG    0.000  1.000
    9097 POLY   1 POL  CG    CG    0.000  1.000
    9098 POLY   1 POL  CG    CG    0.000  1.000
    9099 POLY   1 POL  CG    CG    0.000  1.000
    9100 POLY   1 POL  CG    CG    0.000  1.000
    9101 POLY   1 POL  CG    CG    0.000  1.000
    9102 POLY   1 POL  CG    CG    0.000  1.000
    9103 POLY   1 POL  CG    CG    0.000  1.000
    9104 POLY   1 POL  CG    CG    0.000  1.000
    9105 POLY   1 POL  CG    CG    0.000  1.000
    9106 POLY   1 POL  CG    CG    0.000  1.000
    9107 POLY   1 POL  CG    CG    0.000  1.000
    9108 POLY   1 POL  CG    CG    0.000  1.000
    9109 POLY   1 POL  CG    CG    0.000  1.000
    9110 POLY   1 POL  CG    CG    0.000  1.000
    9111 POLY   1 POL  CG    CG    0.000  1.000
    9112 POLY   1 POL  CG    CG    0.000  1.000
    9113 POLY   1 POL  CG    CG    0.000  1.000
    9114 POLY   1 POL  CG    CG    0.000  1.000
    9115 POLY   1 POL  CG    CG    0.000  1.000
    9116 POLY   1 POL  CG    CG    0.000  1.000
    9117 POLY   1 POL  CG    CG    0.000  1.000
    9118 POLY   1 POL  CG    CG    0.000  1.000
    9119 POLY   1 POL  CG    CG    0.000  1.000
    9120 POLY   1 POL  CG    CG    0.000  1.000
    9121 POLY   1 POL  CG    CG    0.000  1.000
    9122 POLY   1 POL  CG    CG    0.000  1.000
    9123 POLY   1 POL  CG    CG    0.000  1.000
    9124 POLY   1 POL  CG    CG    0.000  1.000
    9125 POLY   1 POL  CG    CG    0.000  1.000
    9126 POLY   1 POL  CG    CG    0.000  1.000
    9127 POLY   1 POL  CG    CG    0.000  1.000
    9128 POLY   1 POL  CG    CG    0.000  1.000
    9129 POLY   1 POL  CG    CG    0.000  1.000
    9130 POLY   1 POL  CG    CG    0.000  1.000
    9131 POLY   1 POL  CG    CG    0.000  1.000
    9132 POLY   1 POL  CG    CG    0.000  1.000
    9133 POLY   1 POL  CG    CG    0.000  1.000
    9134 POLY   1 POL  CG    CG    0.000  1.000
    9135 POLY   1 POL  CG    CG    0.000  1.000
    9136 POLY   1 POL  CG    CG    0.000  1.000
    9137 POLY   1 POL  CG    CG    0.000  1.000
    9138 POLY   1 POL  CG    CG    0.000  1.000
    9139 POLY   1 POL  CG    CG    0.000  1.000
    9140 POLY   1 POL  CG    CG    0.000  1.000
    9141 POLY   1 POL  CG    CG    0.000  1.000
    9142 POLY   1 POL  CG    CG    0.000  1.000
    9143 POLY   1 POL  CG    CG    0.000  1.000
    9144 POLY   1 POL  CG    CG    0.000  1.000
    9145 POLY   1 POL  CG    CG    0.000  1.000
    9146 POLY   1 POL  CG    CG    0.000  1.000
    9147 POLY   1 POL  CG    CG    0.000  1.000
    9148 POLY   1 POL  CG    CG    0.000  1.000
    9149 POLY   1 POL  CG    CG    0.000  1.000
    9150 POLY   1 POL  CG    CG    0.000  1.000
    9151 POLY   1 POL  CG    CG    0.000  1.000
    9152 POLY   1 POL  CG    CG    0.000  1.000
    9153 POLY   1 POL  CG    CG    0.000  1.000
    9154 POLY   1 POL  CG    CG    0.000  1.000
    9155 POLY   1 POL  CG    CG    0.000  1.000
    9156 POLY   1 POL  CG    CG    0.000  1.000
    9157 POLY   1 POL  CG    CG    0.000  1.000
    9158 POLY   1 POL  CG    CG    0.000  1.000
    9159 POLY   1 POL  CG    CG    0.000  1.000
    9160 POLY   1 POL  CG    CG    0.000  1.000
    9161 POLY   1 POL  CG    CG    0.000  1.000
    9162 POLY   1 POL  CG    CG    0.000  1.000
    9163 POLY   1 POL  CG    CG    0.000  1.000
    9164 POLY   1 POL  CG    CG    0.000  1.000
    9165 POLY   1 POL  CG    CG    0.000  1.000
    9166 POLY   1 POL  CG    CG    0.000  1.000
    9167 POLY   1 POL  CG    CG    0.000  1.000
    9168 POLY   1 POL  CG    CG    0.000  1.000
    9169 POLY   1 POL  CG    CG    0.000  1.000
    9170 POLY   1 POL  CG    CG    0.000  1.000
    9171 POLY   1 POL  CG    CG    0.000  1.000
    9172 POLY   1 POL  CG    CG    0.000  1.000
    9173 POLY   1 POL  CG    CG    0.000  1.000
    9174 POLY   1 POL  CG    CG    0.000  1.000
    9175 POLY   1 POL  CG    CG    0.000  1.000
    9176 POLY   1 POL  CG    CG    0.000  1.000
    9177 POLY   1 POL  CG    CG    0.000  1.000
    9178 POLY   1 POL  CG    CG    0.000  1.000
    9179 POLY   1 POL  CG    CG    0.000  1.000
    9180 POLY   1 POL  CG    CG    0.000  1.000
    9181 POLY   1 POL  CG    CG    0.000  1.000
    9182 POLY   1 POL  CG    CG    0.000  1.000
    9183 POLY   1 POL  CG    CG    0.000  1.000
    9184 POLY   1 POL  CG    CG    0.000  1.000
    9185 POLY   1 POL  CG    CG    0.000  1.000
    9186 POLY   1 POL  CG    CG    0.000  1.000
    9187 POLY   1 POL  CG    CG    0.000  1.000
    9188 POLY   1 POL  CG    CG    0.000  1.000
    9189 POLY   1 POL  CG    CG    0.000  1.000
    9190 POLY   1 POL  CG    CG    0.000  1.000
    9191 POLY   1 POL  CG    CG    0.000  1.000
    9192 POLY   1 POL  CG    CG    0.000  1.000
    9193 POLY   1 POL  CG    CG    0.000  1.000
    9194 POLY   1 POL  CG    CG    0.000  1.000
    9195 POLY   1 POL  CG    CG    0.000  1.000
    9196 POLY   1 POL  CG    CG    0.000  1.000
    9197 POLY   1 POL  CG    CG    0.000  1.000
    9198 POLY   1 POL  CG    CG    0.000  1.000
    9199 POLY   1 POL  CG    CG    0.000  1.000
    9200 POLY   1 POL  CG    CG    0.000  1.000
    9201 POLY   1 POL  CG    CG    0.000  1.000
    9202 POLY   1 POL  CG    CG    0.000  1.000
    9203 POLY   1 POL  CG    CG    0.000  1.000
    9204 POLY   1 POL  CG    CG    0.000  1.000
    9205 POLY   1 POL  CG    CG    0.000  1.000
    9206 POLY   1 POL  CG    CG    0.000  1.000
    9207 POLY   1 POL  CG    CG    0.000  1.000
    9208 POLY   1 POL  CG    CG    0.000  1.000
    9209 POLY   1 POL  CG    CG    0.000  1.000
    9210 POLY   1 POL  CG    CG    0.000  1.000
    9211 POLY   1 POL  CG    CG    0.000  1.000
    9212 POLY   1 POL  CG    CG    0.000  1.000
    9213 POLY   1 POL  CG    CG    0.000  1.000
    9214 POLY   1 POL  CG    CG    0.000  1.000
    9215 POLY   1 POL  CG    CG    0.000  1.000
    9216 POLY   1 POL  CG    CG    0.000  1.000
    9217 POLY   1 POL  CG    CG    0.000  1.000
    9218 POLY   1 POL  CG    CG    0.000  1.000
    9219 POLY   1 POL  CG    CG    0.000  1.000
    9220 POLY   1 POL  CG    CG    0.000  1.000
    9221 POLY   1 POL  CG    CG    0.000  1.000
    9222 POLY   1 POL  CG    CG    0.000  1.000
    9223 POLY   1 POL  CG    CG    0.000  1.000
    9224 POLY   1 POL  CG    CG    0.000  1.000
    9225 POLY   1 POL  CG    CG    0.000  1.000
    9226 POLY   1 POL  CG    CG    0.000  1.000
    9227 POLY   1 POL  CG    CG    0.000  1.000
    9228 POLY   1 POL  CG    CG    0.000  1.000
    9229 POLY   1 POL  CG    CG    0.000  1.000
    9230 POLY   1 POL  CG    CG    0.000  1.000
    9231 POLY   1 POL  CG    CG    0.000  1.000
    9232 POLY   1 POL  CG    CG    0.000  1.000
    9233 POLY   1 POL  CG    CG    0.000  1.000
    9234 POLY   1 POL  CG    CG    0.000  1.000
    9235 POLY   1 POL  CG    CG    0.000  1.000
    9236 POLY   1 POL  CG    CG    0.000  1.000
    9237 POLY   1 POL  CG    CG    0.000  1.000
    9238 POLY   1 POL  CG    CG    0.000  1.000
    9239 POLY   1 POL  CG    CG    0.000  1.000
    9240 POLY   1 POL  CG    CG    0.000  1.000
    9241 POLY   1 POL  CG    CG    0.000  1.000
    9242 POLY   1 POL  CG    CG    0.000  1.000
    9243 POLY   1 POL  CG    CG    0.000  1.000
    9244 POLY   1 POL  CG    CG    0.000  1.000
    9245 POLY   1 POL  CG    CG    0.000  1.000
    9246 POLY   1 POL  CG    CG    0.000  1.000
    9247 POLY   1 POL  CG    CG    0.000  1.000
    9248 POLY   1 POL  CG    CG    0.000  1.000
    9249 POLY   1 POL  CG    CG    0.000  1.000
    9250 POLY   1 POL  CG    CG    0.000  1.000
    9251 POLY   1 POL  CG    CG    0.000  1.000
    9252 POLY   1 POL  CG    CG    0.000  1.000
    9253 POLY   1 POL  CG    CG    0.000  1.000
    9254 POLY   1 POL  CG    CG    0.000  1.000
    9255 POLY   1 POL  CG    CG    0.000  1.000
    9256 POLY   1 POL  CG    CG    0.000  1.000
    9257 POLY   1 POL  CG    CG    0.000  1.000
    9258 POLY   1 POL  CG    CG    0.000  1.000
    9259 POLY   1 POL  CG    CG    0.000  1.000
    9260 POLY   1 POL  CG    CG    0.000  1.000
    9261 POLY   1 POL  CG    CG    0.000  1.000
    9262 POLY   1 POL  CG    CG    0.000  1.000
    9263 POLY   1 POL  CG    CG    0.000  1.000
    9264 POLY   1 POL  CG    CG    0.000  1.000
    9265 POLY   1 POL  CG    CG    0.000  1.000
    9266 POLY   1 POL  CG    CG    0.000  1.000
    9267 POLY   1 POL  CG    CG    0.000  1.000
    9268 POLY   1 POL  CG    CG    0.000  1.000
    9269 POLY   1 POL  CG    CG    0.000  1.000
    9270 POLY   1 POL  CG    CG    0.000  1.000
    9271 POLY   1 POL  CG    CG    0.000  1.000
    9272 POLY   1 POL  CG    CG    0.000  1.000
    9273 POLY   1 POL  CG    CG    0.000  1.000
    9274 POLY   1 POL  CG    CG    0.000  1.000
    9275 POLY   1 POL  CG    CG    0.000  1.000
    9276 POLY   1 POL  CG    CG    0.000  1.000
    9277 POLY   1 POL  CG    CG    0.000  1.000
    9278 POLY   1 POL  CG    CG    0.000  1.000
    9279 POLY   1 POL  CG    CG    0.000  1.000
    9280 POLY   1 POL  CG    CG    0.000  1.000
    9281 POLY   1 POL  CG    CG    0.000  1.000
    9282 POLY   1 POL  CG    CG    0.000  1.000
    9283 POLY   1 POL  CG    CG    0.000  1.000
    9284 POLY   1 POL  CG    CG    0.000  1.000
    9285 POLY   1 POL  CG    CG    0.000  1.000
    9286 POLY   1 POL  CG    CG    0.000  1.000
    9287 POLY   1 POL  CG    CG    0.000  1.000
    9288 POLY   1 POL  CG    CG    0.000  1.000
    9289 POLY   1 POL  CG    CG    0.000  1.000
    9290 POLY   1 POL  CG    CG    0.000  1.000
    9291 POLY   1 POL  CG    CG    0.000  1.000
    9292 POLY   1 POL  CG    CG    0.000  1.000
    9293 POLY   1 POL  CG    CG    0.000  1.000
    9294 POLY   1 POL  CG    CG    0.000  1.000
    9295 POLY   1 POL  CG    CG    0.000  1.000
    9296 POLY   1 POL  CG    CG    0.000  1.000
    9297 POLY   1 POL  CG    CG    0.000  1.000
    9298 POLY   1 POL  CG    CG    0.000  1.000
    9299 POLY   1 POL  CG    CG    0.000  1.000
    9300 POLY   1 POL  CG    CG    0.000  1.000
    9301 POLY   1 POL  CG    CG    0.000  1.000
    9302 POLY   1 POL  CG    CG    0.000  1.000
    9303 POLY   1 POL  CG    CG    0.000  1.000
    9304 POLY   1 POL  CG    CG    0.000  1.000
    9305 POLY   1 POL  CG    CG    0.000  1.000
    9306 POLY   1 POL  CG    CG    0.000  1.000
    9307 POLY   1 POL  CG    CG    0.000  1.000
    9308 POLY   1 POL  CG    CG    0.000  1.000
    9309 POLY   1 POL  CG    CG    0.000  1.000
    9310 POLY   1 POL  CG    CG    0.000  1.000
    9311 POLY   1 POL  CG    CG    0.000  1.000
    9312 POLY   1 POL  CG    CG    0.000  1.000
    9313 POLY   1 POL  CG    CG    0.000  1.000
    9314 POLY   1 POL  CG    CG    0.000  1.000
    9315 POLY   1 POL  CG    CG    0.000  1.000
    9316 POLY   1 POL  CG    CG    0.000  1.000
    9317 POLY   1 POL  CG    CG    0.000  1.000
    9318 POLY   1 POL  CG    CG    0.000  1.000
    9319 POLY   1 POL  CG    CG    0.000  1.000
    9320 POLY   1 POL  CG    CG    0.000  1.000
    9321 POLY   1 POL  CG    CG    0.000  1.000
    9322 POLY   1 POL  CG    CG    0.000  1.000
    9323 POLY   1 POL  CG    CG    0.000  1.000
    9324 POLY   1 POL  CG    CG    0.000  1.000
    9325 POLY   1 POL  CG    CG    0.000  1.000
    9326 POLY   1 POL  CG    CG    0.000  1.000
    9327 POLY   1 POL  CG    CG    0.000  1.000
    9328 POLY   1 POL  CG    CG    0.000  1.000
    9329 POLY   1 POL  CG    CG    0.000  1.000
    9330 POLY   1 POL  CG    CG    0.000  1.000
    9331 POLY   1 POL  CG    CG    0.000  1.000
    9332 POLY   1 POL  CG    CG    0.000  1.000
    9333 POLY   1 POL  CG    CG    0.000  1.000
    9334 POLY   1 POL  CG    CG    0.000  1.000
    9335 POLY   1 POL  CG    CG    0.000  1.000
    9336 POLY   1 POL  CG    CG    0.000  1.000
    9337 POLY   1 POL  CG    CG    0.000  1.000
    9338 POLY   1 POL  CG    CG    0.000  1.000
    9339 POLY   1 POL  CG    CG    0.000  1.000
    9340 POLY   1 POL  CG    CG    0.000  1.000
    9341 POLY   1 POL  CG    CG    0.000  1.000
    9342 POLY   1 POL  CG    CG    0.000  1.000
    9343 POLY   1 POL  CG    CG    0.000  1.000
    9344 POLY   1 POL  CG    CG    0.000  1.000
    9345 POLY   1 POL  CG    CG    0.000  1.000
    9346 POLY   1 POL  CG    CG    0.000  1.000
    9347 POLY   1 POL  CG    CG    0.000  1.000
    9348 POLY   1 POL  CG    CG    0.000  1.000
    9349 POLY   1 POL  CG    CG    0.000  1.000
    9350 POLY   1 POL  CG    CG    0.000  1.000
    9351 POLY   1 POL  CG    CG    0.000  1.000
    9352 POLY   1 POL  CG    CG    0.000  1.000
    9353 POLY   1 POL  CG    CG    0.000  1.000
    9354 POLY   1 POL  CG    CG    0.000  1.000
    9355 POLY   1 POL  CG    CG    0.000  1.000
    9356 POLY   1 POL  CG    CG    0.000  1.000
    9357 POLY   1 POL  CG    CG    0.000  1.000
    9358 POLY   1 POL  CG    CG    0.000  1.000
    9359 POLY   1 POL  CG    CG    0.000  1.000
    9360 POLY   1 POL  CG    CG    0.000  1.000
    9361 POLY   1 POL  CG    CG    0.000  1.000
    9362 POLY   1 POL  CG    CG    0.000  1.000
    9363 POLY   1 POL  CG    CG    0.000  1.000
    9364 POLY   1 POL  CG    CG    0.000  1.000
    9365 POLY   1 POL  CG    CG    0.000  1.000
    9366 POLY   1 POL  CG    CG    0.000  1.000
    9367 POLY   1 POL  CG    CG    0.000  1.000
    9368 POLY   1 POL  CG    CG    0.000  1.000
    9369 POLY   1 POL  CG    CG    0.000  1.000
    9370 POLY   1 POL  CG    CG    0.000  1.000
    9371 POLY   1 POL  CG    CG    0.000  1.000
    9372 POLY   1 POL  CG    CG    0.000  1.000
    9373 POLY   1 POL  CG    CG    0.000  1.000
    9374 POLY   1 POL  CG    CG    0.000  1.000
    9375 POLY   1 POL  CG    CG    0.000  1.000
    9376 POLY   1 POL  CG    CG    0.000  1.000
    9377 POLY   1 POL  CG    CG    0.000  1.000
    9378 POLY   1 POL  CG    CG    0.000  1.000
    9379 POLY   1 POL  CG    CG    0.000  1.000
    9380 POLY   1 POL  CG    CG    0.000  1.000
    9381 POLY   1 POL  CG    CG    0.000  1.000
    9382 POLY   1 POL  CG    CG    0.000  1.000
    9383 POLY   1 POL  CG    CG    0.000  1.000
    9384 POLY   1 POL  CG    CG    0.000  1.000
    9385 POLY   1 POL  CG    CG    0.000  1.000
    9386 POLY   1 POL  CG    CG    0.000  1.000
    9387 POLY   1 POL  CG    CG    0.000  1.000
    9388 POLY   1 POL  CG    CG    0.000  1.000
    9389 POLY   1 POL  CG    CG    0.000  1.000
    9390 POLY   1 POL  CG    CG    0.000  1.000
    9391 POLY   1 POL  CG    CG    0.000  1.000
    9392 POLY   1 POL  CG    CG    0.000  1.000
    9393 POLY   1 POL  CG    CG    0.000  1.000
    9394 POLY   1 POL  CG    CG    0.000  1.000
    9395 POLY   1 POL  CG    CG    0.000  1.000
    9396 POLY   1 POL  CG    CG    0.000  1.000
    9397 POLY   1 POL  CG    CG    0.000  1.000
    9398 POLY   1 POL  CG    CG    0.000  1.000
    9399 POLY   1 POL  CG    CG    0.000  1.000
    9400 POLY   1 POL  CG    CG    0.000  1.000
    9401 POLY   1 POL  CG    CG    0.000  1.000
    9402 POLY   1 POL  CG    CG    0.000  1.000
    9403 POLY   1 POL  CG    CG    0.000  1.000
    9404 POLY   1 POL  CG    CG    0.000  1.000
    9405 POLY   1 POL  CG    CG    0.000  1.000
    9406 POLY   1 POL  CG    CG    0.000  1.000
    9407 POLY   1 POL  CG    CG    0.000  1.000
    9408 POLY   1 POL  CG    CG    0.000  1.000
    9409 POLY   1 POL  CG    CG    0.000  1.000
    9410 POLY   1 POL  CG    CG    0.000  1.000
    9411 POLY   1 POL  CG    CG    0.000  1.000
    9412 POLY   1 POL  CG    CG    0.000  1.000
    9413 POLY   1 POL  CG    CG    0.000  1.000
    9414 POLY   1 POL  CG    CG    0.000  1.000
    9415 POLY   1 POL  CG    CG    0.000  1.000
    9416 POLY   1 POL  CG    CG    0.000  1.000
    9417 POLY   1 POL  CG    CG    0.000  1.000
    9418 POLY   1 POL  CG    CG    0.000  1.000
    9419 POLY   1 POL  CG    CG    0.000  1.000
    9420 POLY   1 POL  CG    CG    0.000  1.000
    9421 POLY   1 POL  CG    CG    0.000  1.000
    9422 POLY   1 POL  CG    CG    0.000  1.000
    9423 POLY   1 POL  CG    CG    0.000  1.000
    9424 POLY   1 POL  CG    CG    0.000  1.000
    9425 POLY   1 POL  CG    CG    0.000  1.000
    9426 POLY   1 POL  CG    CG    0.000  1.000
    9427 POLY   1 POL  CG    CG    0.000  1.000
    9428 POLY   1 POL  CG    CG    0.000  1.000
    9429 POLY   1 POL  CG    CG    0.000  1.000
    9430 POLY   1 POL  CG    CG    0.000  1.000
    9431 POLY   1 POL  CG    CG    0.000  1.000
    9432 POLY   1 POL  CG    CG    0.000  1.000
    9433 POLY   1 POL  CG    CG    0.000  1.000
    9434 POLY   1 POL  CG    CG    0.000  1.000
    9435 POLY   1 POL  CG    CG    0.000  1.000
    9436 POLY   1 POL  CG    CG    0.000  1.000
    9437 POLY   1 POL  CG    CG    0.000  1.000
    9438 POLY   1 POL  CG    CG    0.000  1.000
    9439 POLY   1 POL  CG    CG    0.000  1.000
    9440 POLY   1 POL  CG    CG    0.000  1.000
    9441 POLY   1 POL  CG    CG    0.000  1.000
    9442 POLY   1 POL  CG    CG    0.000  1.000
    9443 POLY   1 POL  CG    CG    0.000  1.000
    9444 POLY   1 POL  CG    CG    0.000  1.000
    9445 POLY   1 POL  CG    CG    0.000  1.000
    9446 POLY   1 POL  CG    CG    0.000  1.000
    9447 POLY   1 POL  CG    CG    0.000  1.000
    9448 POLY   1 POL  CG    CG    0.000  1.000
    9449 POLY   1 POL  CG    CG    0.000  1.000
    9450 POLY   1 POL  CG    CG    0.000  1.000
    9451 POLY   1 POL  CG    CG    0.000  1.000
    9452 POLY   1 POL  CG    CG    0.000  1.000
    9453 POLY   1 POL  CG    CG    0.000  1.000
    9454 POLY   1 POL  CG    CG    0.000  1.000
    9455 POLY   1 POL  CG    CG    0.000  1.000
    9456 POLY   1 POL  CG    CG    0.000  1.000
    9457 POLY   1 POL  CG    CG    0.000  1.000
    9458 POLY   1 POL  CG    CG    0.000  1.000
    9459 POLY   1 POL  CG    CG    0.000  1.000
    9460 POLY   1 POL  CG    CG    0.000  1.000
    9461 POLY   1 POL  CG    CG    0.000  1.000
    9462 POLY   1 POL  CG    CG    0.000  1.000
    9463 POLY   1 POL  CG    CG    0.000  1.000
    9464 POLY   1 POL  CG    CG    0.000  1.000
    9465 POLY   1 POL  CG    CG    0.000  1.000
    9466 POLY   1 POL  CG    CG    0.000  1.000
    9467 POLY   1 POL  CG    CG    0.000  1.000
    9468 POLY   1 POL  CG    CG    0.000  1.000
    9469 POLY   1 POL  CG    CG    0.000  1.000
    9470 POLY   1 POL  CG    CG    0.000  1.000
    9471 POLY   1 POL  CG    CG    0.000  1.000
    9472 POLY   1 POL  CG    CG    0.000  1.000
    9473 POLY   1 POL  CG    CG    0.000  1.000
    9474 POLY   1 POL  CG    CG    0.000  1.000
    9475 POLY   1 POL  CG    CG    0.000  1.000
    9476 POLY   1 POL  CG    CG    0.000  1.000
    9477 POLY   1 POL  CG    CG    0.000  1.000
    9478 POLY   1 POL  CG    CG    0.000  1.000
    9479 POLY   1 POL  CG    CG    0.000  1.000
    9480 POLY   1 POL  CG    CG    0.000  1.000
    9481 POLY   1 POL  CG    CG    0.000  1.000
    9482 POLY   1 POL  CG    CG    0.000  1.000
    9483 POLY   1 POL  CG    CG    0.000  1.000
    9484 POLY   1 POL  CG    CG    0.000  1.000
    9485 POLY   1 POL  CG    CG    0.000  1.000
    9486 POLY   1 POL  CG    CG    0.000  1.000
    9487 POLY   1 POL  CG    CG    0.000  1.000
    9488 POLY   1 POL  CG    CG    0.000  1.000
    9489 POLY   1 POL  CG    CG    0.000  1.000
    9490 POLY   1 POL  CG    CG    0.000  1.000
    9491 POLY   1 POL  CG    CG    0.000  1.000
    9492 POLY   1 POL  CG    CG    0.000  1.000
    9493 POLY   1 POL  CG    CG    0.000  1.000
    9494 POLY   1 POL  CG    CG    0.000  1.000
    9495 POLY   1 POL  CG    CG    0.000  1.000
    9496 POLY   1 POL  CG    CG    0.000  1.000
    9497 POLY   1 POL  CG    CG    0.000  1.000
    9498 POLY   1 POL  CG    CG    0.000  1.000
    9499 POLY   1 POL  CG    CG    0.000  1.000
    9500 POLY   1 POL  CG    CG    0.000  1.000
    9501 POLY   1 POL  CG    CG    0.000  1.000
    9502 POLY   1 POL  CG    CG    0.000  1.000
    9503 POLY   1 POL  CG    CG    0.000  1.000
    9504 POLY   1 POL  CG    CG    0.000  1.000
    9505 POLY   1 POL  CG    CG    0.000  1.000
    9506 POLY   1 POL  CG    CG    0.000  1.000
    9507 POLY   1 POL  CG    CG    0.000  1.000
    9508 POLY   1 POL  CG    CG    0.000  1.000
    9509 POLY   1 POL  CG    CG    0.000  1.000
    9510 POLY   1 POL  CG    CG    0.000  1.000
    9511 POLY   1 POL  CG    CG    0.000  1.000
    9512 POLY   1 POL  CG    CG    0.000  1.000
    9513 POLY   1 POL  CG    CG    0.000  1.000
    9514 POLY   1 POL  CG    CG    0.000  1.000
    9515 POLY   1 POL  CG    CG    0.000  1.000
    9516 POLY   1 POL  CG    CG    0.000  1.000
    9517 POLY   1 POL  CG    CG    0.000  1.000
    9518 POLY   1 POL  CG    CG    0.000  1.000
    9519 POLY   1 POL  CG    CG    0.000  1.000
    9520 POLY   1 POL  CG    CG    0.000  1.000
    9521 POLY   1 POL  CG    CG    0.000  1.000
    9522 POLY   1 POL  CG    CG    0.000  1.000
    9523 POLY   1 POL  CG    CG    0.000  1.000
    9524 POLY   1 POL  CG    CG    0.000  1.000
    9525 POLY   1 POL  CG    CG    0.000  1.000
    9526 POLY   1 POL  CG    CG    0.000  1.000
    9527 POLY   1 POL  CG    CG    0.000  1.000
    9528 POLY   1 POL  CG    CG    0.000  1.000
    9529 POLY   1 POL  CG    CG    0.000  1.000
    9530 POLY   1 POL  CG    CG    0.000  1.000
    9531 POLY   1 POL  CG    CG    0.000  1.000
    9532 POLY   1 POL  CG    CG    0.000  1.000
    9533 POLY   1 POL  CG    CG    0.000  1.000
    9534 POLY   1 POL  CG    CG    0.000  1.000
    9535 POLY   1 POL  CG    CG    0.000  1.000
    9536 POLY   1 POL  CG    CG    0.000  1.000
    9537 POLY   1 POL  CG    CG    0.000  1.000
    9538 POLY   1 POL  CG    CG    0.000  1.000
    9539 POLY   1 POL  CG    CG    0.000  1.000
    9540 POLY   1 POL  CG    CG    0.000  1.000
    9541 POLY   1 POL  CG    CG    0.000  1.000
    9542 POLY   1 POL  CG    CG    0.000  1.000
    9543 POLY   1 POL  CG    CG    0.000  1.000
    9544 POLY   1 POL  CG    CG    0.000  1.000
    9545 POLY   1 POL  CG    CG    0.000  1.000
    9546 POLY   1 POL  CG    CG    0.000  1.000
    9547 POLY   1 POL  CG    CG    0.000  1.000
    9548 POLY   1 POL  CG    CG    0.000  1.000
    9549 POLY   1 POL  CG    CG    0.000  1.000
    9550 POLY   1 POL  CG    CG    0.000  1.000
    9551 POLY   1 POL  CG    CG    0.000  1.000
    9552 POLY   1 POL  CG    CG    0.000  1.000
    9553 POLY   1 POL  CG    CG    0.000  1.000
    9554 POLY   1 POL  CG    CG    0.000  1.000
    9555 POLY   1 POL  CG    CG    0.000  1.000
    9556 POLY   1 POL  CG    CG    0.000  1.000
    9557 POLY   1 POL  CG    CG    0.000  1.000
    9558 POLY   1 POL  CG    CG    0.000  1.000
    9559 POLY   1 POL  CG    CG    0.000  1.000
    9560 POLY   1 POL  CG    CG    0.000  1.000
    9561 POLY   1 POL  CG    CG    0.000  1.000
    9562 POLY   1 POL  CG    CG    0.000  1.000
    9563 POLY   1 POL  CG    CG    0.000  1.000
    9564 POLY   1 POL  CG    CG    0.000  1.000
    9565 POLY   1 POL  CG    CG    0.000  1.000
    9566 POLY   1 POL  CG    CG    0.000  1.000
    9567 POLY   1 POL  CG    CG    0.000  1.000
    9568 POLY   1 POL  CG    CG    0.000  1.000
    9569 POLY   1 POL  CG    CG    0.000  1.000
    9570 POLY   1 POL  CG    CG    0.000  1.000
    9571 POLY   1 POL  CG    CG    0.000  1.000
    9572 POLY   1 POL  CG    CG    0.000  1.000
    9573 POLY   1 POL  CG    CG    0.000  1.000
    9574 POLY   1 POL  CG    CG    0.000  1.000
    9575 POLY   1 POL  CG    CG    0.000  1.000
    9576 POLY   1 POL  CG    CG    0.000  1.000
    9577 POLY   1 POL  CG    CG    0.000  1.000
    9578 POLY   1 POL  CG    CG    0.000  1.000
    9579 POLY   1 POL  CG    CG    0.000  1.000
    9580 POLY   1 POL  CG    CG    0.000  1.000
    9581 POLY   1 POL  CG    CG    0.000  1.000
    9582 POLY   1 POL  CG    CG    0.000  1.000
    9583 POLY   1 POL  CG    CG    0.000  1.000
    9584 POLY   1 POL  CG    CG    0.000  1.000
    9585 POLY   1 POL  CG    CG    0.000  1.000
    9586 POLY   1 POL  CG    CG    0.000  1.000
    9587 POLY   1 POL  CG    CG    0.000  1.000
    9588 POLY   1 POL  CG    CG    0.000  1.000
    9589 POLY   1 POL  CG    CG    0.000  1.000
    9590 POLY   1 POL  CG    CG    0.000  1.000
    9591 POLY   1 POL  CG    CG    0.000  1.000
    9592 POLY   1 POL  CG    CG    0.000  1.000
    9593 POLY   1 POL  CG    CG    0.000  1.000
    9594 POLY   1 POL  CG    CG    0.000  1.000
    9595 POLY   1 POL  CG    CG    0.000  1.000
    9596 POLY   1 POL  CG    CG    0.000  1.000
    9597 POLY   1 POL  CG    CG    0.000  1.000
    9598 POLY   1 POL  CG    CG    0.000  1.000
    9599 POLY   1 POL  CG    CG    0.000  1.000
    9600 POLY   1 POL  CG    CG    0.000  1.000
    9601 POLY   1 POL  CG    CG    0.000  1.000
    9602 POLY   1 POL  CG    CG    0.000  1.000
    9603 POLY   1 POL  CG    CG    0.000  1.000
    9604 POLY   1 POL  CG    CG    0.000  1.000
    9605 POLY   1 POL  CG    CG    0.000  1.000
    9606 POLY   1 POL  CG    CG    0.000  1.000
    9607 POLY   1 POL  CG    CG    0.000  1.000
    9608 POLY   1 POL  CG    CG    0.000  1.000
    9609 POLY   1 POL  CG    CG    0.000  1.000
    9610 POLY   1 POL  CG    CG    0.000  1.000
    9611 POLY   1 POL  CG    CG    0.000  1.000
    9612 POLY   1 POL  CG    CG    0.000  1.000
    9613 POLY   1 POL  CG    CG    0.000  1.000
    9614 POLY   1 POL  CG    CG    0.000  1.000
    9615 POLY   1 POL  CG    CG    0.000  1.000
    9616 POLY   1 POL  CG    CG    0.000  1.000
    9617 POLY   1 POL  CG    CG    0.000  1.000
    9618 POLY   1 POL  CG    CG    0.000  1.000
    9619 POLY   1 POL  CG    CG    0.000  1.000
    9620 POLY   1 POL  CG    CG    0.000  1.000
    9621 POLY   1 POL  CG    CG    0.000  1.000
    9622 POLY   1 POL  CG    CG    0.000  1.000
    9623 POLY   1 POL  CG    CG    0.000  1.000
    9624 POLY   1 POL  CG    CG    0.000  1.000
    9625 POLY   1 POL  CG    CG    0.000  1.000
    9626 POLY   1 POL  CG    CG    0.000  1.000
    9627 POLY   1 POL  CG    CG    0.000  1.000
    9628 POLY   1 POL  CG    CG    0.000  1.000
    9629 POLY   1 POL  CG    CG    0.000  1.000
    9630 POLY   1 POL  CG    CG    0.000  1.000
    9631 POLY   1 POL  CG    CG    0.000  1.000
    9632 POLY   1 POL  CG    CG    0.000  1.000
    9633 POLY   1 POL  CG    CG    0.000  1.000
    9634 POLY   1 POL  CG    CG    0.000  1.000
    9635 POLY   1 POL  CG    CG    0.000  1.000
    9636 POLY   1 POL  CG    CG    0.000  1.000
    9637 POLY   1 POL  CG    CG    0.000  1.000
    9638 POLY   1 POL  CG    CG    0.000  1.000
    9639 POLY   1 POL  CG    CG    0.000  1.000
    9640 POLY   1 POL  CG    CG    0.000  1.000
    9641 POLY   1 POL  CG    CG    0.000  1.000
    9642 POLY   1 POL  CG    CG    0.000  1.000
    9643 POLY   1 POL  CG    CG    0.000  1.000
    9644 POLY   1 POL  CG    CG    0.000  1.000
    9645 POLY   1 POL  CG    CG    0.000  1.000
    9646 POLY   1 POL  CG    CG    0.000  1.000
    9647 POLY   1 POL  CG    CG    0.000  1.000
    9648 POLY   1 POL  CG    CG    0.000  1.000
    9649 POLY   1 POL  CG    CG    0.000  1.000
    9650 POLY   1 POL  CG    CG    0.000  1.000
    9651 POLY   1 POL  CG    CG    0.000  1.000
    9652 POLY   1 POL  CG    CG    0.000  1.000
    9653 POLY   1 POL  CG    CG    0.000  1.000
    9654 POLY   1 POL  CG    CG    0.000  1.000
    9655 POLY   1 POL  CG    CG    0.000  1.000
    9656 POLY   1 POL  CG    CG    0.000  1.000
    9657 POLY   1 POL  CG    CG    0.000  1.000
    9658 POLY   1 POL  CG    CG    0.000  1.000
    9659 POLY   1 POL  CG    CG    0.000  1.000
    9660 POLY   1 POL  CG    CG    0.000  1.000
    9661 POLY   1 POL  CG    CG    0.000  1.000
    9662 POLY   1 POL  CG    CG    0.000  1.000
    9663 POLY   1 POL  CG    CG    0.000  1.000
    9664 POLY   1 POL  CG    CG    0.000  1.000
    9665 POLY   1 POL  CG    CG    0.000  1.000
    9666 POLY   1 POL  CG    CG    0.000  1.000
    9667 POLY   1 POL  CG    CG    0.000  1.000
    9668 POLY   1 POL  CG    CG    0.000  1.000
    9669 POLY   1 POL  CG    CG    0.000  1.000
    9670 POLY   1 POL  CG    CG    0.000  1.000
    9671 POLY   1 POL  CG    CG    0.000  1.000
    9672 POLY   1 POL  CG    CG    0.000  1.000
    9673 POLY   1 POL  CG    CG    0.000  1.000
    9674 POLY   1 POL  CG    CG    0.000  1.000
    9675 POLY   1 POL  CG    CG    0.000  1.000
    9676 POLY   1 POL  CG    CG    0.000  1.000
    9677 POLY   1 POL  CG    CG    0.000  1.000
    9678 POLY   1 POL  CG    CG    0.000  1.000
    9679 POLY   1 POL  CG    CG    0.000  1.000
    9680 POLY   1 POL  CG    CG    0.000  1.000
    9681 POLY   1 POL  CG    CG    0.000  1.000
    9682 POLY   1 POL  CG    CG    0.000  1.000
    9683 POLY   1 POL  CG    CG    0.000  1.000
    9684 POLY   1 POL  CG    CG    0.000  1.000
    9685 POLY   1 POL  CG    CG    0.000  1.000
    9686 POLY   1 POL  CG    CG    0.000  1.000
    9687 POLY   1 POL  CG    CG    0.000  1.000
    9688 POLY   1 POL  CG    CG    0.000  1.000
    9689 POLY   1 POL  CG    CG    0.000  1.000
    9690 POLY   1 POL  CG    CG    0.000  1.000
    9691 POLY   1 POL  CG    CG    0.000  1.000
    9692 POLY   1 POL  CG    CG    0.000  1.000
    9693 POLY   1 POL  CG    CG    0.000  1.000
    9694 POLY   1 POL  CG    CG    0.000  1.000
    9695 POLY   1 POL  CG    CG    0.000  1.000
    9696 POLY   1 POL  CG    CG    0.000  1.000
    9697 POLY   1 POL  CG    CG    0.000  1.000
    9698 POLY   1 POL  CG    CG    0.000  1.000
    9699 POLY   1 POL  CG    CG    0.000  1.000
    9700 POLY   1 POL  CG    CG    0.000  1.000
    9701 POLY   1 POL  CG    CG    0.000  1.000
    9702 POLY   1 POL  CG    CG    0.000  1.000
    9703 POLY   1 POL  CG    CG    0.000  1.000
    9704 POLY   1 POL  CG    CG    0.000  1.000
    9705 POLY   1 POL  CG    CG    0.000  1.000
    9706 POLY   1 POL  CG    CG    0.000  1.000
    9707 POLY   1 POL  CG    CG    0.000  1.000
    9708 POLY   1 POL  CG    CG    0.000  1.000
    9709 POLY   1 POL  CG    CG    0.000  1.000
    9710 POLY   1 POL  CG    CG    0.000  1.000
    9711 POLY   1 POL  CG    CG    0.000  1.000
    9712 POLY   1 POL  CG    CG    0.000  1.000
    9713 POLY   1 POL  CG    CG    0.000  1.000
    9714 POLY   1 POL  CG    CG    0.000  1.000
    9715 POLY   1 POL  CG    CG    0.000  1.000
    9716 POLY   1 POL  CG    CG    0.000  1.000
    9717 POLY   1 POL  CG    CG    0.000  1.000
    9718 POLY   1 POL  CG    CG    0.000  1.000
    9719 POLY   1 POL  CG    CG    0.000  1.000
    9720 POLY   1 POL  CG    CG    0.000  1.000
    9721 POLY   1 POL  CG    CG    0.000  1.000
    9722 POLY   1 POL  CG    CG    0.000  1.000
    9723 POLY   1 POL  CG    CG    0.000  1.000
    9724 POLY   1 POL  CG    CG    0.000  1.000
    9725 POLY   1 POL  CG    CG    0.000  1.000
    9726 POLY   1 POL  CG    CG    0.000  1.000
    9727 POLY   1 POL  CG    CG    0.000  1.000
    9728 POLY   1 POL  CG    CG    0.000  1.000
    9729 POLY   1 POL  CG    CG    0.000  1.000
    9730 POLY   1 POL  CG    CG    0.000  1.000
    9731 POLY   1 POL  CG    CG    0.000  1.000
    9732 POLY   1 POL  CG    CG    0.000  1.000
    9733 POLY   1 POL  CG    CG    0.000  1.000
    9734 POLY   1 POL  CG    CG    0.000  1.000
    9735 POLY   1 POL  CG    CG    0.000  1.000
    9736 POLY   1 POL  CG    CG    0.000  1.000
    9737 POLY   1 POL  CG    CG    0.000  1.000
    9738 POLY   1 POL  CG    CG    0.000  1.000
    9739 POLY   1 POL  CG    CG    0.000  1.000
    9740 POLY   1 POL  CG    CG    0.000  1.000
    9741 POLY   1 POL  CG    CG    0.000  1.000
    9742 POLY   1 POL  CG    CG    0.000  1.000
    9743 POLY   1 POL  CG    CG    0.000  1.000
    9744 POLY   1 POL  CG    CG    0.000  1.000
    9745 POLY   1 POL  CG    CG    0.000  1.000
    9746 POLY   1 POL  CG    CG    0.000  1.000
    9747 POLY   1 POL  CG    CG    0.000  1.000
    9748 POLY   1 POL  CG    CG    0.000  1.000
    9749 POLY   1 POL  CG    CG    0.000  1.000
    9750 POLY   1 POL  CG    CG    0.000  1.000
    9751 POLY   1 POL  CG    CG    0.000  1.000
    9752 POLY   1 POL  CG    CG    0.000  1.000
    9753 POLY   1 POL  CG    CG    0.000  1.000
    9754 POLY   1 POL  CG    CG    0.000  1.000
    9755 POLY   1 POL  CG    CG    0.000  1.000
    9756 POLY   1 POL  CG    CG    0.000  1.000
    9757 POLY   1 POL  CG    CG    0.000  1.000
    9758 POLY   1 POL  CG    CG    0.000  1.000
    9759 POLY   1 POL  CG    CG    0.000  1.000
    9760 POLY   1 POL  CG    CG    0.000  1.000
    9761 POLY   1 POL  CG    CG    0.000  1.000
    9762 POLY   1 POL  CG    CG    0.000  1.000
    9763 POLY   1 POL  CG    CG    0.000  1.000
    9764 POLY   1 POL  CG    CG    0.000  1.000
    9765 POLY   1 POL  CG    CG    0.000  1.000
    9766 POLY   1 POL  CG    CG    0.000  1.000
    9767 POLY   1 POL  CG    CG    0.000  1.000
    9768 POLY   1 POL  CG    CG    0.000  1.000
    9769 POLY   1 POL  CG    CG    0.000  1.000
    9770 POLY   1 POL  CG    CG    0.000  1.000
    9771 POLY   1 POL  CG    CG    0.000  1.000
    9772 POLY   1 POL  CG    CG    0.000  1.000
    9773 POLY   1 POL  CG    CG    0.000  1.000
    9774 POLY   1 POL  CG    CG    0.000  1.000
    9775 POLY   1 POL  CG    CG    0.000  1.000
    9776 POLY   1 POL  CG    CG    0.000  1.000
    9777 POLY   1 POL  CG    CG    0.000  1.000
    9778 POLY   1 POL  CG    CG    0.000  1.000
    9779 POLY   1 POL  CG    CG    0.000  1.000
    9780 POLY   1 POL  CG    CG    0.000  1.000
    9781 POLY   1 POL  CG    CG    0.000  1.000
    9782 POLY   1 POL  CG    CG    0.000  1.000
    9783 POLY   1 POL  CG    CG    0.000  1.000
    9784 POLY   1 POL  CG    CG    0.000  1.000
    9785 POLY   1 POL  CG    CG    0.000  1.000
    9786 POLY   1 POL  CG    CG    0.000  1.000
    9787 POLY   1 POL  CG    CG    0.000  1.000
    9788 POLY   1 POL  CG    CG    0.000  1.000
    9789 POLY   1 POL  CG    CG    0.000  1.000
    9790 POLY   1 POL  CG    CG    0.000  1.000
    9791 POLY   1 POL  CG    CG    0.000  1.000
    9792 POLY   1 POL  CG    CG    0.000  1.000
    9793 POLY   1 POL  CG    CG    0.000  1.000
    9794 POLY   1 POL  CG    CG    0.000  1.000
    9795 POLY   1 POL  CG    CG    0.000  1.000
    9796 POLY   1 POL  CG    CG    0.000  1.000
    9797 POLY   1 POL  CG    CG    0.000  1.000
    9798 POLY   1 POL  CG    CG    0.000  1.000
    9799 POLY   1 POL  CG    CG    0.000  1.000
    9800 POLY   1 POL  CG    CG    0.000  1.000
    9801 POLY   1 POL  CG    CG    0.000  1.000
    9802 POLY   1 POL  CG    CG    0.000  1.000
    9803 POLY   1 POL  CG    CG    0.000  1.000
    9804 POLY   1 POL  CG    CG    0.000  1.000
    9805 POLY   1 POL  CG    CG    0.000  1.000
    9806 POLY   1 POL  CG    CG    0.000  1.000
    9807 POLY   1 POL  CG    CG    0.000  1.000
    9808 POLY   1 POL  CG    CG    0.000  1.000
    9809 POLY   1 POL  CG    CG    0.000  1.000
    9810 POLY   1 POL  CG    CG    0.000  1.000
    9811 POLY   1 POL  CG    CG    0.000  1.000
    9812 POLY   1 POL  CG    CG    0.000  1.000
    9813 POLY   1 POL  CG    CG    0.000  1.000
    9814 POLY   1 POL  CG    CG    0.000  1.000
    9815 POLY   1 POL  CG    CG    0.000  1.000
    9816 POLY   1 POL  CG    CG    0.000  1.000
    9817 POLY   1 POL  CG    CG    0.000  1.000
    9818 POLY   1 POL  CG    CG    0.000  1.000
    9819 POLY   1 POL  CG    CG    0.000  1.000
    9820 POLY   1 POL  CG    CG    0.000  1.000
    9821 POLY   1 POL  CG    CG    0.000  1.000
    9822 POLY   1 POL  CG    CG    0.000  1.000
    9823 POLY   1 POL  CG    CG    0.000  1.000
    9824 POLY   1 POL  CG    CG    0.000  1.000
    9825 POLY   1 POL  CG    CG    0.000  1.000
    9826 POLY   1 POL  CG    CG    0.000  1.000
    9827 POLY   1 POL  CG    CG    0.000  1.000
    9828 POLY   1 POL  CG    CG    0.000  1.000
    9829 POLY   1 POL  CG    CG    0.000  1.000
    9830 POLY   1 POL  CG    CG    0.000  1.000
    9831 POLY   1 POL  CG    CG    0.000  1.000
    9832 POLY   1 POL  CG    CG    0.000  1.000
    9833 POLY   1 POL  CG    CG    0.000  1.000
    9834 POLY   1 POL  CG    CG    0.000  1.000
    9835 POLY   1 POL  CG    CG    0.000  1.000
    9836 POLY   1 POL  CG    CG    0.000  1.000
    9837 POLY   1 POL  CG    CG    0.000  1.000
    9838 POLY   1 POL  CG    CG    0.000  1.000
    9839 POLY   1 POL  CG    CG    0.000  1.000
    9840 POLY   1 POL  CG    CG    0.000  1.000
    9841 POLY   1 POL  CG    CG    0.000  1.000
    9842 POLY   1 POL  CG    CG    0.000  1.000
    9843 POLY   1 POL  CG    CG    0.000  1.000
    9844 POLY   1 POL  CG    CG    0.000  1.000
    9845 POLY   1 POL  CG    CG    0.000  1.000
    9846 POLY   1 POL  CG    CG    0.000  1.000
    9847 POLY   1 POL  CG    CG    0.000  1.000
    9848 POLY   1 POL  CG    CG    0.000  1.000
    9849 POLY   1 POL  CG    CG    0.000  1.000
    9850 POLY   1 POL  CG    CG    0.000  1.000
    9851 POLY   1 POL  CG    CG    0.000  1.000
    9852 POLY   1 POL  CG    CG    0.000  1.000
    9853 POLY   1 POL  CG    CG    0.000  1.000
    9854 POLY   1 POL  CG    CG    0.000  1.000
    9855 POLY   1 POL  CG    CG    0.000  1.000
    9856 POLY   1 POL  CG    CG    0.000  1.000
    9857 POLY   1 POL  CG    CG    0.000  1.000
    9858 POLY   1 POL  CG    CG    0.000  1.000
    9859 POLY   1 POL  CG    CG    0.000  1.000
    9860 POLY   1 POL  CG    CG    0.000  1.000
    9861 POLY   1 POL  CG    CG    0.000  1.000
    9862 POLY   1 POL  CG    CG    0.000  1.000
    9863 POLY   1 POL  CG    CG    0.000  1.000
    9864 POLY   1 POL  CG    CG    0.000  1.000
    9865 POLY   1 POL  CG    CG    0.000  1.000
    9866 POLY   1 POL  CG    CG    0.000  1.000
    9867 POLY   1 POL  CG    CG    0.000  1.000
    9868 POLY   1 POL  CG    CG    0.000  1.000
    9869 POLY   1 POL  CG    CG    0.000  1.000
    9870 POLY   1 POL  CG    CG    0.000  1.000
    9871 POLY   1 POL  CG    CG    0.000  1.000
    9872 POLY   1 POL  CG    CG    0.000  1.000
    9873 POLY   1 POL  CG    CG    0.000  1.000
    9874 POLY   1 POL  CG    CG    0.000  1.000
    9875 POLY   1 POL  CG    CG    0.000  1.000
    9876 POLY   1 POL  CG    CG    0.000  1.000
    9877 POLY   1 POL  CG    CG    0.000  1.000
    9878 POLY   1 POL  CG    CG    0.000  1.000
    9879 POLY   1 POL  CG    CG    0.000  1.000
    9880 POLY   1 POL  CG    CG    0.000  1.000
    9881 POLY   1 POL  CG    CG    0.000  1.000
    9882 POLY   1 POL  CG    CG    0.000  1.000
    9883 POLY   1 POL  CG    CG    0.000  1.000
    9884 POLY   1 POL  CG    CG    0.000  1.000
    9885 POLY   1 POL  CG    CG    0.000  1.000
    9886 POLY   1 POL  CG    CG    0.000  1.000
    9887 POLY   1 POL  CG    CG    0.000  1.000
    9888 POLY   1 POL  CG    CG    0.000  1.000
    9889 POLY   1 POL  CG    CG    0.000  1.000
    9890 POLY   1 POL  CG    CG    0.000  1.000
    9891 POLY   1 POL  CG    CG    0.000  1.000
    9892 POLY   1 POL  CG    CG    0.000  1.000
    9893 POLY   1 POL  CG    CG    0.000  1.000
    9894 POLY   1 POL  CG    CG    0.000  1.000
    9895 POLY   1 POL  CG    CG    0.000  1.000
    9896 POLY   1 POL  CG    CG    0.000  1.000
    9897 POLY   1 POL  CG    CG    0.000  1.000
    9898 POLY   1 POL  CG    CG    0.000  1.000
    9899 POLY   1 POL  CG    CG    0.000  1.000
    9900 POLY   1 POL  CG    CG    0.000  1.000
    9901 POLY   1 POL  CG    CG    0.000  1.000
    9902 POLY   1 POL  CG    CG    0.000  1.000
    9903 POLY   1 POL  CG    CG    0.000  1.000
    9904 POLY   1 POL  CG    CG    0.000  1.000
    9905 POLY   1 POL  CG    CG    0.000  1.000
    9906 POLY   1 POL  CG    CG    0.000  1.000
    9907 POLY   1 POL  CG    CG    0.000  1.000
    9908 POLY   1 POL  CG    CG    0.000  1.000
    9909 POLY   1 POL  CG    CG    0.000  1.000
    9910 POLY   1 POL  CG    CG    0.000  1.000
    9911 POLY   1 POL  CG    CG    0.000  1.000
    9912 POLY   1 POL  CG    CG    0.000  1.000
    9913 POLY   1 POL  CG    CG    0.000  1.000
    9914 POLY   1 POL  CG    CG    0.000  1.000
    9915 POLY   1 POL  CG    CG    0.000  1.000
    9916 POLY   1 POL  CG    CG    0.000  1.000
    9917 POLY   1 POL  CG    CG    0.000  1.000
    9918 POLY   1 POL  CG    CG    0.000  1.000
    9919 POLY   1 POL  CG    CG    0.000  1.000
    9920 POLY   1 POL  CG    CG    0.000  1.000
    9921 POLY   1 POL  CG    CG    0.000  1.000
    9922 POLY   1 POL  CG    CG    0.000  1.000
    9923 POLY   1 POL  CG    CG    0.000  1.000
    9924 POLY   1 POL  CG    CG    0.000  1.000
    9925 POLY   1 POL  CG    CG    0.000  1.000
    9926 POLY   1 POL  CG    CG    0.000  1.000
    9927 POLY   1 POL  CG    CG    0.000  1.000
    9928 POLY   1 POL  CG    CG    0.000  1.000
    9929 POLY   1 POL  CG    CG    0.000  1.000
    9930 POLY   1 POL  CG    CG    0.000  1.000
    9931 POLY   1 POL  CG    CG    0.000  1.000
    9932 POLY   1 POL  CG    CG    0.000  1.000
    9933 POLY   1 POL  CG    CG    0.000  1.000
    9934 POLY   1 POL  CG    CG    0.000  1.000
    9935 POLY   1 POL  CG    CG    0.000  1.000
    9936 POLY   1 POL  CG    CG    0.000  1.000
    9937 POLY   1 POL  CG    CG    0.000  1.000
    9938 POLY   1 POL  CG    CG    0.000  1.000
    9939 POLY   1 POL  CG    CG    0.000  1.000
    9940 POLY   1 POL  CG    CG    0.000  1.000
    9941 POLY   1 POL  CG    CG    0.000  1.000
    9942 POLY   1 POL  CG    CG    0.000  1.000
    9943 POLY   1 POL  CG    CG    0.000  1.000
    9944 POLY   1 POL  CG    CG    0.000  1.000
    9945 POLY   1 POL  CG    CG    0.000  1.000
    9946 POLY   1 POL  CG    CG    0.000  1.000
    9947 POLY   1 POL  CG    CG    0.000  1.000
    9948 POLY   1 POL  CG    CG    0.000  1.000
    9949 POLY   1 POL  CG    CG    0.000  1.000
    9950 POLY   1 POL  CG    CG    0.000  1.000
    9951 POLY   1 POL  CG    CG    0.000  1.000
    9952 POLY   1 POL  CG    CG    0.000  1.000
    9953 POLY   1 POL  CG    CG    0.000  1.000
    9954 POLY   1 POL  CG    CG    0.000  1.000
    9955 POLY   1 POL  CG    CG    0.000  1.000
    9956 POLY   1 POL  CG    CG    0.000  1.000
    9957 POLY   1 POL  CG    CG    0.000  1.000
    9958 POLY   1 POL  CG    CG    0.000  1.000
    9959 POLY   1 POL  CG    CG    0.000  1.000
    9960 POLY   1 POL  CG    CG    0.000  1.000
    9961 POLY   1 POL  CG    CG    0.000  1.000
    9962 POLY   1 POL  CG    CG    0.000  1.000
    9963 POLY   1 POL  CG    CG    0.000  1.000
    9964 POLY   1 POL  CG    CG    0.000  1.000
    9965 POLY   1 POL  CG    CG    0.000  1.000
    9966 POLY   1 POL  CG    CG    0.000  1.000
    9967 POLY   1 POL  CG    CG    0.000  1.000
    9968 POLY   1 POL  CG    CG    0.000  1.000
    9969 POLY   1 POL  CG    CG    0.000  1.000
    9970 POLY   1 POL  CG    CG    0.000  1.000
    9971 POLY   1 POL  CG    CG    0.000  1.000
    9972 POLY   1 POL  CG    CG    0.000  1.000
    9973 POLY   1 POL  CG    CG    0.000  1.000
    9974 POLY   1 POL  CG    CG    0.000  1.000
    9975 POLY   1 POL  CG    CG    0.000  1.000
    9976 POLY   1 POL  CG    CG    0.000  1.000
    9977 POLY   1 POL  CG    CG    0.000  1.000
    9978 POLY   1 POL  CG    CG    0.000  1.000
    9979 POLY   1 POL  CG    CG    0.000  1.000
    9980 POLY   1 POL  CG    CG    0.000  1.000
    9981 POLY   1 POL  CG    CG    0.000  1.000
    9982 POLY   1 POL  CG    CG    0.000  1.000
    9983 POLY   1 POL  CG    CG    0.000  1.000
    9984 POLY   1 POL  CG    CG    0.000  1.000
    9985 POLY   1 POL  CG    CG    0.000  1.000
    9986 POLY   1 POL  CG    CG    0.000  1.000
    9987 POLY   1 POL  CG    CG    0.000  1.000
    9988 POLY   1 POL  CG    CG    0.000  1.000
    9989 POLY   1 POL  CG    CG    0.000  1.000
    9990 POLY   1 POL  CG    CG    0.000  1.000
    9991 POLY   1 POL  CG    CG    0.000  1.000
    9992 POLY   1 POL  CG    CG    0.000  1.000
    9993 POLY   1 POL  CG    CG    0.000  1.000
    9994 POLY   1 POL  CG    CG    0.000  1.000
    9995 POLY   1 POL  CG    CG    0.000  1.000
    9996 POLY   1 POL  CG    CG    0.000  1.000
    9997 POLY   1 POL  CG    CG    0.000  1.000
    9998 POLY   1 POL  CG    CG    0.000  1.000
    9999 POLY   1 POL  CG    CG    0.000  1.000
   10000 POLY   1 POL  CG    CG    0.000  1.000

    9999 !NBOND: bonds
       1       2       2       3       3       4       4       5
       5       6       6       7       7       8       8       9
       9      10      10      11      11      12      12      13
      13      14      14      15      15      16      16      17
      17      18      18      19      19      20      20      21
      21      22      22      23      23      24      24      25
      25      26      26      27      27      28      28      29
      29      30      30      31      31      32      32      33
      33      34      34      35      35      36      36      37
      37      38      38      39      39      40      40      41
      41      42      42      43      43      44      44      45
      45      46      46      47      47      48      48      49
      49      50      50      51      51      52      52      53
      53      54      54      55      55      56      56      57
      57      58      58      59      59      60      60      61
      61      62      62      63      63      64      64      65
      65      66      66      67      67      68      68      69
      69      70      70      71      71      72      72      73
      73      74      74      75      75      76      76      77
      77      78      78      79      79      80      80      81
      81      82      82      83      83      84      84      85
      85      86      86      87      87      88      88      89
      89      90      90      91      91      92      92      93
      93      94      94      95      95      96      96      97
      97      98      98      99      99     100     100     101
     101     102     102     103     103     104     104     105
     105     106     106     107     107     108     108     109
     109     110     110     111     111     112     112     113
     113     114     114     115     115     116     116     117
     117     118     118     119     119     120     120     121
     121     122     122     123     123     124     124     125
     125     126     126     127     127     128     128     129
     129     130     130     131     131     132     132     133
     133     134     134     135     135     136     136     137
     137     138     138     139     139     140     140     141
     141     142     142     143     143     144     144     145
     145     146     146     147     147     148     148     149
     149     150     150     151     151     152     152     153
     153     154     154     155     155     156     156     157
     157     158     158     159     159     160     160     161
     161     162     162     163     163     164     164     165
     165     166     166     167     167     168     168     169
     169     170     170     171     171     172     172     173
     173     174     174     175     175     176     176     177
     177     178     178     179     179     180     180     181
     181     182     182     183     183     184     184     185
     185     186     186     187     187     188     188     189
     189     190     190     191     191     192     192     193
     193     194     194     195     195     196     196     197
     197     198     198     199     199     200     200     201
     201     202     202     203     203     204     204     205
     205     206     206     207     207     208     208     209
     209     210     210     211     211     212     212     213
     213     214     214     215     215     216     216     217
     217     218     218     219     219     220     220     221
     221     222     222     223     223     224     224     225
     225     226     226     227     227     228     228     229
     229     230     230     231     231     232     232     233
     233     234     234     235     235     236     236     237
     237     238     238     239     239     240     240     241
     241     242     242     243     243     244     244     245
     245     246     246     247     247     248     248     249
     249     250     250     251     251     252     252     253
     253     254     254     255     255     256     256     257
     257     258     258     259     259     260     260     261
     261     262     262     263     263     264     264     265
     265     266     266     267     267     268     268     269
     269     270     270     271     271     272     272     273
     273     274     274     275     275     276     276     277
     277     278     278     279     279     280     280     281
     281     282     282     283     283     284     284     285
     285     286     286     287     287     288     288     289
     289     290     290     291     291     292     292     293
     293     294     294     295     295     296     296     297
     297     298     298     299     299     300     300     301
     301     302     302     303     303     304     304     305
     305     306     306     307     307     308     308     309
     309     310     310     311     311     312     312     313
     313     314     314     315     315     316     316     317
     317     318     318     319     319     320     320     321
     321     322     322     323     323     324     324     325
     325     326     326     327     327     328     328     329
     329     330     330     331     331     332     332     333
     333     334     334     335     335     336     336     337
     337     338     338     339     339     340     340     341
     341     342     342     343     343     344     344     345
     345     346     346     347     347     348     348     349
     349     350     350     351     351     352     352     353
     353     354     354     355     355     356     356     357
     357     358     358     359     359     360     360     361
     361     362     362     363     363     364     364     365
     365     366     366     367     367     368     368     369
     369     370     370     371     371     372     372     373
     373     374     374     375     375     376     376     377
     377     378     378     379     379     380     380     381
     381     382     382     383     383     384     384     385
     385     386     386     387     387     388     388     389
     389     390     390     391     391     392     392     393
     393     394     394     395     395     396     396     397
     397     398     398     399     399     400     400     401
     401     402     402     403     403     404     404     405
     405     406     406     407     407     408     408     409
     409     410     410     411     411     412     412     413
     413     414     414     415     415     416     416     417
     417     418     418     419     419     420     420     421
     421     422     422     423     423     424     424     425
     425     426     426     427     427     428     428     429
     429     430     430     431     431     432     432     433
     433     434     434     435     435     436     436     437
     437     438     438     439     439     440     440     441
     441     442     442     443     443     444     444     445
     445     446     446     447     447     448     448     449
     449     450     450     451     451     452     452     453
     453     454     454     455     455     456     456     457
     457     458     458     459     459     460     460     461
     461     462     462     463     463     464     464     465
     465     466     466     467     467     468     468     469
     469     470     470     471     471     472     472     473
     473     474     474     475     475     476     476     477
     477     478     478     479     479     480     480     481
     481     482     482     483     483     484     484     485
     485     486     486     487     487     488     488     489
     489     490     490     491     491     492     492     493
     493     494     494     495     495     496     496     497
     497     498     498     499     499     500     500     501
     501     502     502     503     503     504     504     505
     505     506     506     507     507     508     508     509
     509     510     510     511     511     512     512     513
     513     514     514     515     515     516     516     517
     517     518     518     519     519     520     520     521
     521     522     522     523     523     524     524     525
     525     526     526     527     527     528     528     529
     529     530     530     531     531     532     532     533
     533     534     534     535     535     536     536     537
     537     538     538     539     539     540     540     541
     541     542     542     543     543     544     544     545
     545     546     546     547     547     548     548     549
     549     550     550     551     551     552     552     553
     553     554     554     555     555     556     556     557
     557     558     558     559     559     560     560     561
     561     562     562     563     563     564     564     565
     565     566     566     567     567     568     568     569
     569     570     570     571     571     572     572     573
     573     574     574     575     575     576     576     577
     577     578     578     579     579     580     580     581
     581     582     582     583     583     584     584     585
     585     586     586     587     587     588     588     589
     589     590     590     591     591     592     592     593
     593     594     594     595     595     596     596     597
     597     598     598     599     599     600     600     601
     601     602     602     603     603     604     604     605
     605     606     606     607     607     608     608     609
     609     610     610     611     611     612     612     613
     613     614     614     615     615     616     616     617
     617     618     618     619     619     620     620     621
     621     622     622     623     623     624     624     625
     625     626     626     627     627     628     628     629
     629     630     630     631     631     632     632     633
     633     634     634     635     635     636     636     637
     637     638     638     639     639     640     640     641
     641     642     642     643     643     644     644     645
     645     646     646     647     647     648     648     649
     649     650     650     651     651     652     652     653
     653     654     654     655     655     656     656     657
     657     658     658     659     659     660     660     661
     661     662     662     663     663     664     664     665
     665     666     666     667     667     668     668     669
     669     670     670     671     671     672     672     673
     673     674     674     675     675     676     676     677
     677     678     678     679     679     680     680     681
     681     682     682     683     683     684     684     685
     685     686     686     687     687     688     688     689
     689     690     690     691     691     692     692     693
     693     694     694     695     695     696     696     697
     697     698     698     699     699     700     700     701
     701     702     702     703     703     704     704     705
     705     706     706     707     707     708     708     709
     709     710     710     711     711     712     712     713
     713     714     714     715     715     716     716     717
     717     718     718     719     719     720     720     721
     721     722     722     723     723     724     724     725
     725     726     726     727     727     728     728     729
     729     730     730     731     731     732     732     733
     733     734     734     735     735     736     736     737
     737     738     738     739     739     740     740     741
     741     742     742     743     743     744     744     745
     745     746     746     747     747     748     748     749
     749     750     750     751     751     752     752     753
     753     754     754     755     755     756     756     757
     757     758     758     759     759     760     760     761
     761     762     762     763     763     764     764     765
     765     766     766     767     767     768     768     769
     769     770     770     771     771     772     772     773
     773     774     774     775     775     776     776     777
     777     778     778     779     779     780     780     781
     781     782     782     783     783     784     784     785
     785     786     786     787     787     788     788     789
     789     790     790     791     791     792     792     793
     793     794     794     795     795     796     796     797
     797     798     798     799     799     800     800     801
     801     802     802     803     803     804     804     805
     805     806     806     807     807     808     808     809
     809     810     810     811     811     812     812     813
     813     814     814     815     815     816     816     817
     817     818     818     819     819     820     820     821
     821     822     822     823     823     824     824     825
     825     826     826     827     827     828     828     829
     829     830     830     831     831     832     832     833
     833     834     834     835     835     836     836     837
     837     838     838     839     839     840     840     841
     841     842     842     843     843     844     844     845
     845     846     846     847     847     848     848     849
     849     850     850     851     851     852     852     853
     853     854     854     855     855     856     856     857
     857     858     858     859     859     860     860     861
     861     862     862     863     863     864     864     865
     865     866     866     867     867     868     868     869
     869     870     870     871     871     872     872     873
     873     874     874     875     875     876     876     877
     877     878     878     879     879     880     880     881
     881     882     882     883     883     884     884     885
     885     886     886     887     887     888     888     889
     889     890     890     891     891     892     892     893
     893     894     894     895     895     896     896     897
     897     898     898     899     899     900     900     901
     901     902     902     903     903     904     904     905
     905     906     906     907     907     908     908     909
     909     910     910     911     911     912     912     913
     913     914     914     915     915     916     916     917
     917     918     918     919     919     920     920     921
     921     922     922     923     923     924     924     925
     925     926     926     927     927     928     928     929
     929     930     930     931     931     932     932     933
     933     934     934     935     935     936     936     937
     937     938     938     939     939     940     940     941
     941     942     942     943     943     944     944     945
     945     946     946     947     947     948     948     949
     949     950     950     951     951     952     952     953
     953     954     954     955     955     956     956     957
     957     958     958     959     959     960     960     961
     961     962     962     963     963     964     964     965
     965     966     966     967     967     968     968     969
     969     970     970     971     971     972     972     973
     973     974     974     975     975     976     976     977
     977     978     978     979     979     980     980     981
     981     982     982     983     983     984     984     985
     985     986     986     987     987     988     988     989
     989     990     990     991     991     992     992     993
     993     994     994     995     995     996     996     997
     997     998     998     999     999    1000    1000    1001
    1001    1002    1002    1003    1003    1004    1004    1005
    1005    1006    1006    1007    1007    1008    1008    1009
    1009    1010    1010    1011    1011    1012    1012    1013
    1013    1014    1014    1015    1015    1016    1016    1017
    1017    1018    1018    1019    1019    1020    1020    1021
    1021    1022    1022    1023    1023    1024    1024    1025
    1025    1026    1026    1027    1027    1028    1028    1029
    1029    1030    1030    1031    1031    1032    1032    1033
    1033    1034    1034    1035    1035    1036    1036    1037
    1037    1038    1038    1039    1039    1040    1040    1041
    1041    1042    1042    1043    1043    1044    1044    1045
    1045    1046    1046    1047    1047    1048    1048    1049
    1049    1050    1050    1051    1051    1052    1052    1053
    1053    1054    1054    1055    1055    1056    1056    1057
    1057    1058    1058    1059    1059    1060    1060    1061
    1061    1062    1062    1063    1063    1064    1064    1065
    1065    1066    1066    1067    1067    1068    1068    1069
    1069    1070    1070    1071    1071    1072    1072    1073
    1073    1074    1074    1075    1075    1076    1076    1077
    1077    1078    1078    1079    1079    1080    1080    1081
    1081    1082    1082    1083    1083    1084    1084    1085
    1085    1086    1086    1087    1087    1088    1088    1089
    1089    1090    1090    1091    1091    1092    1092    1093
    1093    1094    1094    1095    1095    1096    1096    1097
    1097    1098    1098    1099    1099    1100    1100    1101
    1101    1102    1102    1103    1103    1104    1104    1105
    1105    1106    1106    1107    1107    1108    1108    1109
    1109    1110    1110    1111    1111    1112    1112    1113
    1113    1114    1114    1115    1115    1116    1116    1117
    1117    1118    1118    1119    1119    1120    1120    1121
    1121    1122    1122    1123    1123    1124    1124    1125
    1125    1126    1126    1127    1127    1128    1128    1129
    1129    1130    1130    1131    1131    1132    1132    1133
    1133    1134    1134    1135    1135    1136    1136    1137
    1137    1138    1138    1139    1139    1140    1140    1141
    1141    1142    1142    1143    1143    1144    1144    1145
    1145    1146    1146    1147    1147    1148    1148    1149
    1149    1150    1150    1151    1151    1152    1152    1153
    1153    1154    1154    1155    1155    1156    1156    1157
    1157    1158    1158    1159    1159    1160    1160    1161
    1161    1162    1162    1163    1163    1164    1164    1165
    1165    1166    1166    1167    1167    1168    1168    1169
    1169    1170    1170    1171    1171    1172    1172    1173
    1173    1174    1174    1175    1175    1176    1176    1177
    1177    1178    1178    1179    1179    1180    1180    1181
    1181    1182    1182    1183    1183    1184    1184    1185
    1185    1186    1186    1187    1187    1188    1188    1189
    1189    1190    1190    1191    1191    1192    1192    1193
    1193    1194    1194    1195    1195    1196    1196    1197
    1197    1198    1198    1199    1199    1200    1200    1201
    1201    1202    1202    1203    1203    1204    1204    1205
    1205    1206    1206    1207    1207    1208    1208    1209
    1209    1210    1210    1211    1211    1212    1212    1213
    1213    1214    1214    1215    1215    1216    1216    1217
    1217    1218    1218    1219    1219    1220    1220    1221
    1221    1222    1222    1223    1223    1224    1224    1225
    1225    1226    1226    1227    1227    1228    1228    1229
    1229    1230    1230    1231    1231    1232    1232    1233
    1233    1234    1234    1235    1235    1236    1236    1237
    1237    1238    1238    1239    1239    1240    1240    1241
    1241    1242    1242    1243    1243    1244    1244    1245
    1245    1246    1246    1247    1247    1248    1248    1249
    1249    1250    1250    1251    1251    1252    1252    1253
    1253    1254    1254    1255    1255    1256    1256    1257
    1257    1258    1258    1259    1259    1260    1260    1261
    1261    1262    1262    1263    1263    1264    1264    1265
    1265    1266    1266    1267    1267    1268    1268    1269
    1269    1270    1270    1271    1271    1272    1272    1273
    1273    1274    1274    1275    1275    1276    1276    1277
    1277    1278    1278    1279    1279    1280    1280    1281
    1281    1282    1282    1283    1283    1284    1284    1285
    1285    1286    1286    1287    1287    1288    1288    1289
    1289    1290    1290    1291    1291    1292    1292    1293
    1293    1294    1294    1295    1295    1296    1296    1297
    1297    1298    1298    1299    1299    1300    1300    1301
    1301    1302    1302    1303    1303    1304    1304    1305
    1305    1306    1306    1307    1307    1308    1308    1309
    1309    1310    1310    1311    1311    1312    1312    1313
    1313    1314    1314    1315    1315    1316    1316    1317
    1317    1318    1318    1319    1319    1320    1320    1321
    1321    1322    1322    1323    1323    1324    1324    1325
    1325    1326    1326    1327    1327    1328    1328    1329
    1329    1330    1330    1331    1331    1332    1332    1333
    1333    1334    1334    1335    1335    1336    1336    1337
    1337    1338    1338    1339    1339    1340    1340    1341
    1341    1342    1342    1343    1343    1344    1344    1345
    1345    1346    1346    1347    1347    1348    1348    1349
    1349    1350    1350    1351    1351    1352    1352    1353
    1353    1354    1354    1355    1355    1356    1356    1357
    1357    1358    1358    1359    1359    1360    1360    1361
    1361    1362    1362    1363    1363    1364    1364    1365
    1365    1366    1366    1367    1367    1368    1368    1369
    1369    1370    1370    1371    1371    1372    1372    1373
    1373    1374    1374    1375    1375    1376    1376    1377
    1377    1378    1378    1379    1379    1380    1380    1381
    1381    1382    1382    1383    1383    1384    1384    1385
    1385    1386    1386    1387    1387    1388    1388    1389
    1389    1390    1390    1391    1391    1392    1392    1393
    1393    1394    1394    1395    1395    1396    1396    1397
    1397    1398    1398    1399    1399    1400    1400    1401
    1401    1402    1402    1403    1403    1404    1404    1405
    1405    1406    1406    1407    1407    1408    1408    1409
    1409    1410    1410    1411    1411    1412    1412    1413
    1413    1414    1414    1415    1415    1416    1416    1417
    1417    1418    1418    1419    1419    1420    1420    1421
    1421    1422    1422    1423    1423    1424    1424    1425
    1425    1426    1426    1427    1427    1428    1428    1429
    1429    1430    1430    1431    1431    1432    1432    1433
    1433    1434    1434    1435    1435    1436    1436    1437
    1437    1438    1438    1439    1439    1440    1440    1441
    1441    1442    1442    1443    1443    1444    1444    1445
    1445    1446    1446    1447    1447    1448    1448    1449
    1449    1450    1450    1451    1451    1452    1452    1453
    1453    1454    1454    1455    1455    1456    1456    1457
    1457    1458    1458    1459    1459    1460    1460    1461
    1461    1462    1462    1463    1463    1464    1464    1465
    1465    1466    1466    1467    1467    1468    1468    1469
    1469    1470    1470    1471    1471    1472    1472    1473
    1473    1474    1474    1475    1475    1476    1476    1477
    1477    1478    1478    1479    1479    1480    1480    1481
    1481    1482    1482    1483    1483    1484    1484    1485
    1485    1486    1486    1487    1487    1488    1488    1489
    1489    1490    1490    1491    1491    1492    1492    1493
    1493    1494    1494    1495    1495    1496    1496    1497
    1497    1498    1498    1499    1499    1500    1500    1501
    1501    1502    1502    1503    1503    1504    1504    1505
    1505    1506    1506    1507    1507    1508    1508    1509
    1509    1510    1510    1511    1511    1512    1512    1513
    1513    1514    1514    1515    1515    1516    1516    1517
    1517    1518    1518    1519    1519    1520    1520    1521
    1521    1522    1522    1523    1523    1524    1524    1525
    1525    1526    1526    1527    1527    1528    1528    1529
    1529    1530    1530    1531    1531    1532    1532    1533
    1533    1534    1534    1535    1535    1536    1536    1537
    1537    1538    1538    1539    1539    1540    1540    1541
    1541    1542    1542    1543    1543    1544    1544    1545
    1545    1546    1546    1547    1547    1548    1548    1549
    1549    1550    1550    1551    1551    1552    1552    1553
    1553    1554    1554    1555    1555    1556    1556    1557
    1557    1558    1558    1559    1559    1560    1560    1561
    1561    1562    1562    1563    1563    1564    1564    1565
    1565    1566    1566    1567    1567    1568    1568    1569
    1569    1570    1570    1571    1571    1572    1572    1573
    1573    1574    1574    1575    1575    1576    1576    1577
    1577    1578    1578    1579    1579    1580    1580    1581
    1581    1582    1582    1583    1583    1584    1584    1585
    1585    1586    1586    1587    1587    1588    1588    1589
    1589    1590    1590    1591    1591    1592    1592    1593
    1593    1594    1594    1595    1595    1596    1596    1597
    1597    1598    1598    1599    1599    1600    1600    1601
    1601    1602    1602    1603    1603    1604    1604    1605
    1605    1606    1606    1607    1607    1608    1608    1609
    1609    1610    1610    1611    1611    1612    1612    1613
    1613    1614    1614    1615    1615    1616    1616    1617
    1617    1618    1618    1619    1619    1620    1620    1621
    1621    1622    1622    1623    1623    1624    1624    1625
    1625    1626    1626    1627    1627    1628    1628    1629
    1629    1630    1630    1631    1631    1632    1632    1633
    1633    1634    1634    1635    1635    1636    1636    1637
    1637    1638    1638    1639    1639    1640    1640    1641
    1641    1642    1642    1643    1643    1644    1644    1645
    1645    1646    1646    1647    1647    1648    1648    1649
    1649    1650    1650    1651    1651    1652    1652    1653
    1653    1654    1654    1655    1655    1656    1656    1657
    1657    1658    1658    1659    1659    1660    1660    1661
    1661    1662    1662    1663    1663    1664    1664    1665
    1665    1666    1666    1667    1667    1668    1668    1669
    1669    1670    1670    1671    1671    1672    1672    1673
    1673    1674    1674    1675    1675    1676    1676    1677
    1677    1678    1678    1679    1679    1680    1680    1681
    1681    1682    1682    1683    1683    1684    1684    1685
    1685    1686    1686    1687    1687    1688    1688    1689
    1689    1690    1690    1691    1691    1692    1692    1693
    1693    1694    1694    1695    1695    1696    1696    1697
    1697    1698    1698    1699    1699    1700    1700    1701
    1701    1702    1702    1703    1703    1704    1704    1705
    1705    1706    1706    1707    1707    1708    1708    1709
    1709    1710    1710    1711    1711    1712    1712    1713
    1713    1714    1714    1715    1715    1716    1716    1717
    1717    1718    1718    1719    1719    1720    1720    1721
    1721    1722    1722    1723    1723    1724    1724    1725
    1725    1726    1726    1727    1727    1728    1728    1729
    1729    1730    1730    1731    1731    1732    1732    1733
    1733    1734    1734    1735    1735    1736    1736    1737
    1737    1738    1738    1739    1739    1740    1740    1741
    1741    1742    1742    1743    1743    1744    1744    1745
    1745    1746    1746    1747    1747    1748    1748    1749
    1749    1750    1750    1751    1751    1752    1752    1753
    1753    1754    1754    1755    1755    1756    1756    1757
    1757    1758    1758    1759    1759    1760    1760    1761
    1761    1762    1762    1763    1763    1764    1764    1765
    1765    1766    1766    1767    1767    1768    1768    1769
    1769    1770    1770    1771    1771    1772    1772    1773
    1773    1774    1774    1775    1775    1776    1776    1777
    1777    1778    1778    1779    1779    1780    1780    1781
    1781    1782    1782    1783    1783    1784    1784    1785
    1785    1786    1786    1787    1787    1788    1788    1789
    1789    1790    1790    1791    1791    1792    1792    1793
    1793    1794    1794    1795    1795    1796    1796    1797
    1797    1798    1798    1799    1799    1800    1800    1801
    1801    1802    1802    1803    1803    1804    1804    1805
    1805    1806    1806    1807    1807    1808    1808    1809
    1809    1810    1810    1811    1811    1812    1812    1813
    1813    1814    1814    1815    1815    1816    1816    1817
    1817    1818    1818    1819    1819    1820    1820    1821
    1821    1822    1822    1823    1823    1824    1824    1825
    1825    1826    1826    1827    1827    1828    1828    1829
    1829    1830    1830    1831    1831    1832    1832    1833
    1833    1834    1834    1835    1835    1836    1836    1837
    1837    1838    1838    1839    1839    1840    1840    1841
    1841    1842    1842    1843    1843    1844    1844    1845
    1845    1846    1846    1847    1847    1848    1848    1849
    1849    1850    1850    1851    1851    1852    1852    1853
    1853    1854    1854    1855    1855    1856    1856    1857
    1857    1858    1858    1859    1859    1860    1860    1861
    1861    1862    1862    1863    1863    1864    1864    1865
    1865    1866    1866    1867    1867    1868    1868    1869
    1869    1870    1870    1871    1871    1872    1872    1873
    1873    1874    1874    1875    1875    1876    1876    1877
    1877    1878    1878    1879    1879    1880    1880    1881
    1881    1882    1882    1883    1883    1884    1884    1885
    1885    1886    1886    1887    1887    1888    1888    1889
    1889    1890    1890    1891    1891    1892    1892    1893
    1893    1894    1894    1895    1895    1896    1896    1897
    1897    1898    1898    1899    1899    1900    1900    1901
    1901    1902    1902    1903    1903    1904    1904    1905
    1905    1906    1906    1907    1907    1908    1908    1909
    1909    1910    1910    1911    1911    1912    1912    1913
    1913    1914    1914    1915    1915    1916    1916    1917
    1917    1918    1918    1919    1919    1920    1920    1921
    1921    1922    1922    1923    1923    1924    1924    1925
    1925    1926    1926    1927    1927    1928    1928    1929
    1929    1930    1930    1931    1931    1932    1932    1933
    1933    1934    1934    1935    1935    1936    1936    1937
    1937    1938    1938    1939    1939    1940    1940    1941
    1941    1942    1942    1943    1943    1944    1944    1945
    1945    1946    1946    1947    1947    1948    1948    1949
    1949    1950    1950    1951    1951    1952    1952    1953
    1953    1954    1954    1955    1955    1956    1956    1957
    1957    1958    1958    1959    1959    1960    1960    1961
    1961    1962    1962    1963    1963    1964    1964    1965
    1965    1966    1966    1967    1967    1968    1968    1969
    1969    1970    1970    1971    1971    1972    1972    1973
    1973    1974    1974    1975    1975    1976    1976    1977
    1977    1978    1978    1979    1979    1980    1980    1981
    1981    1982    1982    1983    1983    1984    1984    1985
    1985    1986    1986    1987    1987    1988    1988    1989
    1989    1990    1990    1991    1991    1992    1992    1993
    1993    1994    1994    1995    1995    1996    1996    1997
    1997    1998    1998    1999    1999    2000    2000    2001
    2001    2002    2002    2003    2003    2004    2004    2005
    2005    2006    2006    2007    2007    2008    2008    2009
    2009    2010    2010    2011    2011    2012    2012    2013
    2013    2014    2014    2015    2015    2016    2016    2017
    2017    2018    2018    2019    2019    2020    2020    2021
    2021    2022    2022    2023    2023    2024    2024    2025
    2025    2026    2026    2027    2027    2028    2028    2029
    2029    2030    2030    2031    2031    2032    2032    2033
    2033    2034    2034    2035    2035    2036    2036    2037
    2037    2038    2038    2039    2039    2040    2040    2041
    2041    2042    2042    2043    2043    2044    2044    2045
    2045    2046    2046    2047    2047    2048    2048    2049
    2049    2050    2050    2051    2051    2052    2052    2053
    2053    2054    2054    2055    2055    2056    2056    2057
    2057    2058    2058    2059    2059    2060    2060    2061
    2061    2062    2062    2063    2063    2064    2064    2065
    2065    2066    2066    2067    2067    2068    2068    2069
    2069    2070    2070    2071    2071    2072    2072    2073
    2073    2074    2074    2075    2075    2076    2076    2077
    2077    2078    2078    2079    2079    2080    2080    2081
    2081    2082    2082    2083    2083    2084    2084    2085
    2085    2086    2086    2087    2087    2088    2088    2089
    2089    2090    2090    2091    2091    2092    2092    2093
    2093    2094    2094    2095    2095    2096    2096    2097
    2097    2098    2098    2099    2099    2100    2100    2101
    2101    2102    2102    2103    2103    2104    2104    2105
    2105    2106    2106    2107    2107    2108    2108    2109
    2109    2110    2110    2111    2111    2112    2112    2113
    2113    2114    2114    2115    2115    2116    2116    2117
    2117    2118    2118    2119    2119    2120    2120    2121
    2121    2122    2122    2123    2123    2124    2124    2125
    2125    2126    2126    2127    2127    2128    2128    2129
    2129    2130    2130    2131    2131    2132    2132    2133
    2133    2134    2134    2135    2135    2136    2136    2137
    2137    2138    2138    2139    2139    2140    2140    2141
    2141    2142    2142    2143    2143    2144    2144    2145
    2145    2146    2146    2147    2147    2148    2148    2149
    2149    2150    2150    2151    2151    2152    2152    2153
    2153    2154    2154    2155    2155    2156    2156    2157
    2157    2158    2158    2159    2159    2160    2160    2161
    2161    2162    2162    2163    2163    2164    2164    2165
    2165    2166    2166    2167    2167    2168    2168    2169
    2169    2170    2170    2171    2171    2172    2172    2173
    2173    2174    2174    2175    2175    2176    2176    2177
    2177    2178    2178    2179    2179    2180    2180    2181
    2181    2182    2182    2183    2183    2184    2184    2185
    2185    2186    2186    2187    2187    2188    2188    2189
    2189    2190    2190    2191    2191    2192    2192    2193
    2193    2194    2194    2195    2195    2196    2196    2197
    2197    2198    2198    2199    2199    2200    2200    2201
    2201    2202    2202    2203    2203    2204    2204    2205
    2205    2206    2206    2207    2207    2208    2208    2209
    2209    2210    2210    2211    2211    2212    2212    2213
    2213    2214    2214    2215    2215    2216    2216    2217
    2217    2218    2218    2219    2219    2220    2220    2221
    2221    2222    2222    2223    2223    2224    2224    2225
    2225    2226    2226    2227    2227    2228    2228    2229
    2229    2230    2230    2231    2231    2232    2232    2233
    2233    2234    2234    2235    2235    2236    2236    2237
    2237    2238    2238    2239    2239    2240    2240    2241
    2241    2242    2242    2243    2243    2244    2244    2245
    2245    2246    2246    2247    2247    2248    2248    2249
    2249    2250    2250    2251    2251    2252    2252    2253
    2253    2254    2254    2255    2255    2256    2256    2257
    2257    2258    2258    2259    2259    2260    2260    2261
    2261    2262    2262    2263    2263    2264    2264    2265
    2265    2266    2266    2267    2267    2268    2268    2269
    2269    2270    2270    2271    2271    2272    2272    2273
    2273    2274    2274    2275    2275    2276    2276    2277
    2277    2278    2278    2279    2279    2280    2280    2281
    2281    2282    2282    2283    2283    2284    2284    2285
    2285    2286    2286    2287    2287    2288    2288    2289
    2289    2290    2290    2291    2291    2292    2292    2293
    2293    2294    2294    2295    2295    2296    2296    2297
    2297    2298    2298    2299    2299    2300    2300    2301
    2301    2302    2302    2303    2303    2304    2304    2305
    2305    2306    2306    2307    2307    2308    2308    2309
    2309    2310    2310    2311    2311    2312    2312    2313
    2313    2314    2314    2315    2315    2316    2316    2317
    2317    2318    2318    2319    2319    2320    2320    2321
    2321    2322    2322    2323    2323    2324    2324    2325
    2325    2326    2326    2327    2327    2328    2328    2329
    2329    2330    2330    2331    2331    2332    2332    2333
    2333    2334    2334    2335    2335    2336    2336    2337
    2337    2338    2338    2339    2339    2340    2340    2341
    2341    2342    2342    2343    2343    2344    2344    2345
    2345    2346    2346    2347    2347    2348    2348    2349
    2349    2350    2350    2351    2351    2352    2352    2353
    2353    2354    2354    2355    2355    2356    2356    2357
    2357    2358    2358    2359    2359    2360    2360    2361
    2361    2362    2362    2363    2363    2364    2364    2365
    2365    2366    2366    2367    2367    2368    2368    2369
    2369    2370    2370    2371    2371    2372    2372    2373
    2373    2374    2374    2375    2375    2376    2376    2377
    2377    2378    2378    2379    2379    2380    2380    2381
    2381    2382    2382    2383    2383    2384    2384    2385
    2385    2386    2386    2387    2387    2388    2388    2389
    2389    2390    2390    2391    2391    2392    2392    2393
    2393    2394    2394    2395    2395    2396    2396    2397
    2397    2398    2398    2399    2399    2400    2400    2401
    2401    2402    2402    2403    2403    2404    2404    2405
    2405    2406    2406    2407    2407    2408    2408    2409
    2409    2410    2410    2411    2411    2412    2412    2413
    2413    2414    2414    2415    2415    2416    2416    2417
    2417    2418    2418    2419    2419    2420    2420    2421
    2421    2422    2422    2423    2423    2424    2424    2425
    2425    2426    2426    2427    2427    2428    2428    2429
    2429    2430    2430    2431    2431    2432    2432    2433
    2433    2434    2434    2435    2435    2436    2436    2437
    2437    2438    2438    2439    2439    2440    2440    2441
    2441    2442    2442    2443    2443    2444    2444    2445
    2445    2446    2446    2447    2447    2448    2448    2449
    2449    2450    2450    2451    2451    2452    2452    2453
    2453    2454    2454    2455    2455    2456    2456    2457
    2457    2458    2458    2459    2459    2460    2460    2461
    2461    2462    2462    2463    2463    2464    2464    2465
    2465    2466    2466    2467    2467    2468    2468    2469
    2469    2470    2470    2471    2471    2472    2472    2473
    2473    2474    2474    2475    2475    2476    2476    2477
    2477    2478    2478    2479    2479    2480    2480    2481
    2481    2482    2482    2483    2483    2484    2484    2485
    2485    2486    2486    2487    2487    2488    2488    2489
    2489    2490    2490    2491    2491    2492    2492    2493
    2493    2494    2494    2495    2495    2496    2496    2497
    2497    2498    2498    2499    2499    2500    2500    2501
    2501    2502    2502    2503    2503    2504    2504    2505
    2505    2506    2506    2507    2507    2508    2508    2509
    2509    2510    2510    2511    2511    2512    2512    2513
    2513    2514    2514    2515    2515    2516    2516    2517
    2517    2518    2518    2519    2519    2520    2520    2521
    2521    2522    2522    2523    2523    2524    2524    2525
    2525    2526    2526    2527    2527    2528    2528    2529
    2529    2530    2530    2531    2531    2532    2532    2533
    2533    2534    2534    2535    2535    2536    2536    2537
    2537    2538    2538    2539    2539    2540    2540    2541
    2541    2542    2542    2543    2543    2544    2544    2545
    2545    2546    2546    2547    2547    2548    2548    2549
    2549    2550    2550    2551    2551    2552    2552    2553
    2553    2554    2554    2555    2555    2556    2556    2557
    2557    2558    2558    2559    2559    2560    2560    2561
    2561    2562    2562    2563    2563    2564    2564    2565
    2565    2566    2566    2567    2567    2568    2568    2569
    2569    2570    2570    2571    2571    2572    2572    2573
    2573    2574    2574    2575    2575    2576    2576    2577
    2577    2578    2578    2579    2579    2580    2580    2581
    2581    2582    2582    2583    2583    2584    2584    2585
    2585    2586    2586    2587    2587    2588    2588    2589
    2589    2590    2590    2591    2591    2592    2592    2593
    2593    2594    2594    2595    2595    2596    2596    2597
    2597    2598    2598    2599    2599    2600    2600    2601
    2601    2602    2602    2603    2603    2604    2604    2605
    2605    2606    2606    2607    2607    2608    2608    2609
    2609    2610    2610    2611    2611    2612    2612    2613
    2613    2614    2614    2615    2615    2616    2616    2617
    2617    2618    2618    2619    2619    2620    2620    2621
    2621    2622    2622    2623    2623    2624    2624    2625
    2625    2626    2626    2627    2627    2628    2628    2629
    2629    2630    2630    2631    2631    2632    2632    2633
    2633    2634    2634    2635    2635    2636    2636    2637
    2637    2638    2638    2639    2639    2640    2640    2641
    2641    2642    2642    2643    2643    2644    2644    2645
    2645    2646    2646    2647    2647    2648    2648    2649
    2649    2650    2650    2651    2651    2652    2652    2653
    2653    2654    2654    2655    2655    2656    2656    2657
    2657    2658    2658    2659    2659    2660    2660    2661
    2661    2662    2662    2663    2663    2664    2664    2665
    2665    2666    2666    2667    2667    2668    2668    2669
    2669    2670    2670    2671    2671    2672    2672    2673
    2673    2674    2674    2675    2675    2676    2676    2677
    2677    2678    2678    2679    2679    2680    2680    2681
    2681    2682    2682    2683    2683    2684    2684    2685
    2685    2686    2686    2687    2687    2688    2688    2689
    2689    2690    2690    2691    2691    2692    2692    2693
    2693    2694    2694    2695    2695    2696    2696    2697
    2697    2698    2698    2699    2699    2700    2700    2701
    2701    2702    2702    2703    2703    2704    2704    2705
    2705    2706    2706    2707    2707    2708    2708    2709
    2709    2710    2710    2711    2711    2712    2712    2713
    2713    2714    2714    2715    2715    2716    2716    2717
    2717    2718    2718    2719    2719    2720    2720    2721
    2721    2722    2722    2723    2723    2724    2724    2725
    2725    2726    2726    2727    2727    2728    2728    2729
    2729    2730    2730    2731    2731    2732    2732    2733
    2733    2734    2734    2735    2735    2736    2736    2737
    2737    2738    2738    2739    2739    2740    2740    2741
    2741    2742    2742    2743    2743    2744    2744    2745
    2745    2746    2746    2747    2747    2748    2748    2749
    2749    2750    2750    2751    2751    2752    2752    2753
    2753    2754    2754    2755    2755    2756    2756    2757
    2757    2758    2758    2759    2759    2760    2760    2761
    2761    2762    2762    2763    2763    2764    2764    2765
    2765    2766    2766    2767    2767    2768    2768    2769
    2769    2770    2770    2771    2771    2772    2772    2773
    2773    2774    2774    2775    2775    2776    2776    2777
    2777    2778    2778    2779    2779    2780    2780    2781
    2781    2782    2782    2783    2783    2784    2784    2785
    2785    2786    2786    2787    2787    2788    2788    2789
    2789    2790    2790    2791    2791    2792    2792    2793
    2793    2794    2794    2795    2795    2796    2796    2797
    2797    2798    2798    2799    2799    2800    2800    2801
    2801    2802    2802    2803    2803    2804    2804    2805
    2805    2806    2806    2807    2807    2808    2808    2809
    2809    2810    2810    2811    2811    2812    2812    2813
    2813    2814    2814    2815    2815    2816    2816    2817
    2817    2818    2818    2819    2819    2820    2820    2821
    2821    2822    2822    2823    2823    2824    2824    2825
    2825    2826    2826    2827    2827    2828    2828    2829
    2829    2830    2830    2831    2831    2832    2832    2833
    2833    2834    2834    2835    2835    2836    2836    2837
    2837    2838    2838    2839    2839    2840    2840    2841
    2841    2842    2842    2843    2843    2844    2844    2845
    2845    2846    2846    2847    2847    2848    2848    2849
    2849    2850    2850    2851    2851    2852    2852    2853
    2853    2854    2854    2855    2855    2856    2856    2857
    2857    2858    2858    2859    2859    2860    2860    2861
    2861    2862    2862    2863    2863    2864    2864    2865
    2865    2866    2866    2867    2867    2868    2868    2869
    2869    2870    2870    2871    2871    2872    2872    2873
    2873    2874    2874    2875    2875    2876    2876    2877
    2877    2878    2878    2879    2879    2880    2880    2881
    2881    2882    2882    2883    2883    2884    2884    2885
    2885    2886    2886    2887    2887    2888    2888    2889
    2889    2890    2890    2891    2891    2892    2892    2893
    2893    2894    2894    2895    2895    2896    2896    2897
    2897    2898    2898    2899    2899    2900    2900    2901
    2901    2902    2902    2903    2903    2904    2904    2905
    2905    2906    2906    2907    2907    2908    2908    2909
    2909    2910    2910    2911    2911    2912    2912    2913
    2913    2914    2914    2915    2915    2916    2916    2917
    2917    2918    2918    2919    2919    2920    2920    2921
    2921    2922    2922    2923    2923    2924    2924    2925
    2925    2926    2926    2927    2927    2928    2928    2929
    2929    2930    2930    2931    2931    2932    2932    2933
    2933    2934    2934    2935    2935    2936    2936    2937
    2937    2938    2938    2939    2939    2940    2940    2941
    2941    2942    2942    2943    2943    2944    2944    2945
    2945    2946    2946    2947    2947    2948    2948    2949
    2949    2950    2950    2951    2951    2952    2952    2953
    2953    2954    2954    2955    2955    2956    2956    2957
    2957    2958    2958    2959    2959    2960    2960    2961
    2961    2962    2962    2963    2963    2964    2964    2965
    2965    2966    2966    2967    2967    2968    2968    2969
    2969    2970    2970    2971    2971    2972    2972    2973
    2973    2974    2974    2975    2975    2976    2976    2977
    2977    2978    2978    2979    2979    2980    2980    2981
    2981    2982    2982    2983    2983    2984    2984    2985
    2985    2986    2986    2987    2987    2988    2988    2989
    2989    2990    2990    2991    2991    2992    2992    2993
    2993    2994    2994    2995    2995    2996    2996    2997
    2997    2998    2998    2999    2999    3000    3000    3001
    3001    3002    3002    3003    3003    3004    3004    3005
    3005    3006    3006    3007    3007    3008    3008    3009
    3009    3010    3010    3011    3011    3012    3012    3013
    3013    3014    3014    3015    3015    3016    3016    3017
    3017    3018    3018    3019    3019    3020    3020    3021
    3021    3022    3022    3023    3023    3024    3024    3025
    3025    3026    3026    3027    3027    3028    3028    3029
    3029    3030    3030    3031    3031    3032    3032    3033
    3033    3034    3034    3035    3035    3036    3036    3037
    3037    3038    3038    3039    3039    3040    3040    3041
    3041    3042    3042    3043    3043    3044    3044    3045
    3045    3046    3046    3047    3047    3048    3048    3049
    3049    3050    3050    3051    3051    3052    3052    3053
    3053    3054    3054    3055    3055    3056    3056    3057
    3057    3058    3058    3059    3059    3060    3060    3061
    3061    3062    3062    3063    3063    3064    3064    3065
    3065    3066    3066    3067    3067    3068    3068    3069
    3069    3070    3070    3071    3071    3072    3072    3073
    3073    3074    3074    3075    3075    3076    3076    3077
    3077    3078    3078    3079    3079    3080    3080    3081
    3081    3082    3082    3083    3083    3084    3084    3085
    3085    3086    3086    3087    3087    3088    3088    3089
    3089    3090    3090    3091    3091    3092    3092    3093
    3093    3094    3094    3095    3095    3096    3096    3097
    3097    3098    3098    3099    3099    3100    3100    3101
    3101    3102    3102    3103    3103    3104    3104    3105
    3105    3106    3106    3107    3107    3108    3108    3109
    3109    3110    3110    3111    3111    3112    3112    3113
    3113    3114    3114    3115    3115    3116    3116    3117
    3117    3118    3118    3119    3119    3120    3120    3121
    3121    3122    3122    3123    3123    3124    3124    3125
    3125    3126    3126    3127    3127    3128    3128    3129
    3129    3130    3130    3131    3131    3132    3132    3133
    3133    3134    3134    3135    3135    3136    3136    3137
    3137    3138    3138    3139    3139    3140    3140    3141
    3141    3142    3142    3143    3143    3144    3144    3145
    3145    3146    3146    3147    3147    3148    3148    3149
    3149    3150    3150    3151    3151    3152    3152    3153
    3153    3154    3154    3155    3155    3156    3156    3157
    3157    3158    3158    3159    3159    3160    3160    3161
    3161    3162    3162    3163    3163    3164    3164    3165
    3165    3166    3166    3167    3167    3168    3168    3169
    3169    3170    3170    3171    3171    3172    3172    3173
    3173    3174    3174    3175    3175    3176    3176    3177
    3177    3178    3178    3179    3179    3180    3180    3181
    3181    3182    3182    3183    3183    3184    3184    3185
    3185    3186    3186    3187    3187    3188    3188    3189
    3189    3190    3190    3191    3191    3192    3192    3193
    3193    3194    3194    3195    3195    3196    3196    3197
    3197    3198    3198    3199    3199    3200    3200    3201
    3201    3202    3202    3203    3203    3204    3204    3205
    3205    3206    3206    3207    3207    3208    3208    3209
    3209    3210    3210    3211    3211    3212    3212    3213
    3213    3214    3214    3215    3215    3216    3216    3217
    3217    3218    3218    3219    3219    3220    3220    3221
    3221    3222    3222    3223    3223    3224    3224    3225
    3225    3226    3226    3227    3227    3228    3228    3229
    3229    3230    3230    3231    3231    3232    3232    3233
    3233    3234    3234    3235    3235    3236    3236    3237
    3237    3238    3238    3239    3239    3240    3240    3241
    3241    3242    3242    3243    3243    3244    3244    3245
    3245    3246    3246    3247    3247    3248    3248    3249
    3249    3250    3250    3251    3251    3252    3252    3253
    3253    3254    3254    3255    3255    3256    3256    3257
    3257    3258    3258    3259    3259    3260    3260    3261
    3261    3262    3262    3263    3263    3264    3264    3265
    3265    3266    3266    3267    3267    3268    3268    3269
    3269    3270    3270    3271    3271    3272    3272    3273
    3273    3274    3274    3275    3275    3276    3276    3277
    3277    3278    3278    3279    3279    3280    3280    3281
    3281    3282    3282    3283    3283    3284    3284    3285
    3285    3286    3286    3287    3287    3288    3288    3289
    3289    3290    3290    3291    3291    3292    3292    3293
    3293    3294    3294    3295    3295    3296    3296    3297
    3297    3298    3298    3299    3299    3300    3300    3301
    3301    3302    3302    3303    3303    3304    3304    3305
    3305    3306    3306    3307    3307    3308    3308    3309
    3309    3310    3310    3311    3311    3312    3312    3313
    3313    3314    3314    3315    3315    3316    3316    3317
    3317    3318    3318    3319    3319    3320    3320    3321
    3321    3322    3322    3323    3323    3324    3324    3325
    3325    3326    3326    3327    3327    3328    3328    3329
    3329    3330    3330    3331    3331    3332    3332    3333
    3333    3334    3334    3335    3335    3336    3336    3337
    3337    3338    3338    3339    3339    3340    3340    3341
    3341    3342    3342    3343    3343    3344    3344    3345
    3345    3346    3346    3347    3347    3348    3348    3349
    3349    3350    3350    3351    3351    3352    3352    3353
    3353    3354    3354    3355    3355    3356    3356    3357
    3357    3358    3358    3359    3359    3360    3360    3361
    3361    3362    3362    3363    3363    3364    3364    3365
    3365    3366    3366    3367    3367    3368    3368    3369
    3369    3370    3370    3371    3371    3372    3372    3373
    3373    3374    3374    3375    3375    3376    3376    3377
    3377    3378    3378    3379    3379    3380    3380    3381
    3381    3382    3382    3383    3383    3384    3384    3385
    3385    3386    3386    3387    3387    3388    3388    3389
    3389    3390    3390    3391    3391    3392    3392    3393
    3393    3394    3394    3395    3395    3396    3396    3397
    3397    3398    3398    3399    3399    3400    3400    3401
    3401    3402    3402    3403    3403    3404    3404    3405
    3405    3406    3406    3407    3407    3408    3408    3409
    3409    3410    3410    3411    3411    3412    3412    3413
    3413    3414    3414    3415    3415    3416    3416    3417
    3417    3418    3418    3419    3419    3420    3420    3421
    3421    3422    3422    3423    3423    3424    3424    3425
    3425    3426    3426    3427    3427    3428    3428    3429
    3429    3430    3430    3431    3431    3432    3432    3433
    3433    3434    3434    3435    3435    3436    3436    3437
    3437    3438    3438    3439    3439    3440    3440    3441
    3441    3442    3442    3443    3443    3444    3444    3445
    3445    3446    3446    3447    3447    3448    3448    3449
    3449    3450    3450    3451    3451    3452    3452    3453
    3453    3454    3454    3455    3455    3456    3456    3457
    3457    3458    3458    3459    3459    3460    3460    3461
    3461    3462    3462    3463    3463    3464    3464    3465
    3465    3466    3466    3467    3467    3468    3468    3469
    3469    3470    3470    3471    3471    3472    3472    3473
    3473    3474    3474    3475    3475    3476    3476    3477
    3477    3478    3478    3479    3479    3480    3480    3481
    3481    3482    3482    3483    3483    3484    3484    3485
    3485    3486    3486    3487    3487    3488    3488    3489
    3489    3490    3490    3491    3491    3492    3492    3493
    3493    3494    3494    3495    3495    3496    3496    3497
    3497    3498    3498    3499    3499    3500    3500    3501
    3501    3502    3502    3503    3503    3504    3504    3505
    3505    3506    3506    3507    3507    3508    3508    3509
    3509    3510    3510    3511    3511    3512    3512    3513
    3513    3514    3514    3515    3515    3516    3516    3517
    3517    3518    3518    3519    3519    3520    3520    3521
    3521    3522    3522    3523    3523    3524    3524    3525
    3525    3526    3526    3527    3527    3528    3528    3529
    3529    3530    3530    3531    3531    3532    3532    3533
    3533    3534    3534    3535    3535    3536    3536    3537
    3537    3538    3538    3539    3539    3540    3540    3541
    3541    3542    3542    3543    3543    3544    3544    3545
    3545    3546    3546    3547    3547    3548    3548    3549
    3549    3550    3550    3551    3551    3552    3552    3553
    3553    3554    3554    3555    3555    3556    3556    3557
    3557    3558    3558    3559    3559    3560    3560    3561
    3561    3562    3562    3563    3563    3564    3564    3565
    3565    3566    3566    3567    3567    3568    3568    3569
    3569    3570    3570    3571    3571    3572    3572    3573
    3573    3574    3574    3575    3575    3576    3576    3577
    3577    3578    3578    3579    3579    3580    3580    3581
    3581    3582    3582    3583    3583    3584    3584    3585
    3585    3586    3586    3587    3587    3588    3588    3589
    3589    3590    3590    3591    3591    3592    3592    3593
    3593    3594    3594    3595    3595    3596    3596    3597
    3597    3598    3598    3599    3599    3600    3600    3601
    3601    3602    3602    3603    3603    3604    3604    3605
    3605    3606    3606    3607    3607    3608    3608    3609
    3609    3610    3610    3611    3611    3612    3612    3613
    3613    3614    3614    3615    3615    3616    3616    3617
    3617    3618    3618    3619    3619    3620    3620    3621
    3621    3622    3622    3623    3623    3624    3624    3625
    3625    3626    3626    3627    3627    3628    3628    3629
    3629    3630    3630    3631    3631    3632    3632    3633
    3633    3634    3634    3635    3635    3636    3636    3637
    3637    3638    3638    3639    3639    3640    3640    3641
    3641    3642    3642    3643    3643    3644    3644    3645
    3645    3646    3646    3647    3647    3648    3648    3649
    3649    3650    3650    3651    3651    3652    3652    3653
    3653    3654    3654    3655    3655    3656    3656    3657
    3657    3658    3658    3659    3659    3660    3660    3661
    3661    3662    3662    3663    3663    3664    3664    3665
    3665    3666    3666    3667    3667    3668    3668    3669
    3669    3670    3670    3671    3671    3672    3672    3673
    3673    3674    3674    3675    3675    3676    3676    3677
    3677    3678    3678    3679    3679    3680    3680    3681
    3681    3682    3682    3683    3683    3684    3684    3685
    3685    3686    3686    3687    3687    3688    3688    3689
    3689    3690    3690    3691    3691    3692    3692    3693
    3693    3694    3694    3695    3695    3696    3696    3697
    3697    3698    3698    3699    3699    3700    3700    3701
    3701    3702    3702    3703    3703    3704    3704    3705
    3705    3706    3706    3707    3707    3708    3708    3709
    3709    3710    3710    3711    3711    3712    3712    3713
    3713    3714    3714    3715    3715    3716    3716    3717
    3717    3718    3718    3719    3719    3720    3720    3721
    3721    3722    3722    3723    3723    3724    3724    3725
    3725    3726    3726    3727    3727    3728    3728    3729
    3729    3730    3730    3731    3731    3732    3732    3733
    3733    3734    3734    3735    3735    3736    3736    3737
    3737    3738    3738    3739    3739    3740    3740    3741
    3741    3742    3742    3743    3743    3744    3744    3745
    3745    3746    3746    3747    3747    3748    3748    3749
    3749    3750    3750    3751    3751    3752    3752    3753
    3753    3754    3754    3755    3755    3756    3756    3757
    3757    3758    3758    3759    3759    3760    3760    3761
    3761    3762    3762    3763    3763    3764    3764    3765
    3765    3766    3766    3767    3767    3768    3768    3769
    3769    3770    3770    3771    3771    3772    3772    3773
    3773    3774    3774    3775    3775    3776    3776    3777
    3777    3778    3778    3779    3779    3780    3780    3781
    3781    3782    3782    3783    3783    3784    3784    3785
    3785    3786    3786    3787    3787    3788    3788    3789
    3789    3790    3790    3791    3791    3792    3792    3793
    3793    3794    3794    3795    3795    3796    3796    3797
    3797    3798    3798    3799    3799    3800    3800    3801
    3801    3802    3802    3803    3803    3804    3804    3805
    3805    3806    3806    3807    3807    3808    3808    3809
    3809    3810    3810    3811    3811    3812    3812    3813
    3813    3814    3814    3815    3815    3816    3816    3817
    3817    3818    3818    3819    3819    3820    3820    3821
    3821    3822    3822    3823    3823    3824    3824    3825
    3825    3826    3826    3827    3827    3828    3828    3829
    3829    3830    3830    3831    3831    3832    3832    3833
    3833    3834    3834    3835    3835    3836    3836    3837
    3837    3838    3838    3839    3839    3840    3840    3841
    3841    3842    3842    3843    3843    3844    3844    3845
    3845    3846    3846    3847    3847    3848    3848    3849
    3849    3850    3850    3851    3851    3852    3852    3853
    3853    3854    3854    3855    3855    3856    3856    3857
    3857    3858    3858    3859    3859    3860    3860    3861
    3861    3862    3862    3863    3863    3864    3864    3865
    3865    3866    3866    3867    3867    3868    3868    3869
    3869    3870    3870    3871    3871    3872    3872    3873
    3873    3874    3874    3875    3875    3876    3876    3877
    3877    3878    3878    3879    3879    3880    3880    3881
    3881    3882    3882    3883    3883    3884    3884    3885
    3885    3886    3886    3887    3887    3888    3888    3889
    3889    3890    3890    3891    3891    3892    3892    3893
    3893    3894    3894    3895    3895    3896    3896    3897
    3897    3898    3898    3899    3899    3900    3900    3901
    3901    3902    3902    3903    3903    3904    3904    3905
    3905    3906    3906    3907    3907    3908    3908    3909
    3909    3910    3910    3911    3911    3912    3912    3913
    3913    3914    3914    3915    3915    3916    3916    3917
    3917    3918    3918    3919    3919    3920    3920    3921
    3921    3922    3922    3923    3923    3924    3924    3925
    3925    3926    3926    3927    3927    3928    3928    3929
    3929    3930    3930    3931    3931    3932    3932    3933
    3933    3934    3934    3935    3935    3936    3936    3937
    3937    3938    3938    3939    3939    3940    3940    3941
    3941    3942    3942    3943    3943    3944    3944    3945
    3945    3946    3946    3947    3947    3948    3948    3949
    3949    3950    3950    3951    3951    3952    3952    3953
    3953    3954    3954    3955    3955    3956    3956    3957
    3957    3958    3958    3959    3959    3960    3960    3961
    3961    3962    3962    3963    3963    3964    3964    3965
    3965    3966    3966    3967    3967    3968    3968    3969
    3969    3970    3970    3971    3971    3972    3972    3973
    3973    3974    3974    3975    3975    3976    3976    3977
    3977    3978    3978    3979    3979    3980    3980    3981
    3981    3982    3982    3983    3983    3984    3984    3985
    3985    3986    3986    3987    3987    3988    3988    3989
    3989    3990    3990    3991    3991    3992    3992    3993
    3993    3994    3994    3995    3995    3996    3996    3997
    3997    3998    3998    3999    3999    4000    4000    4001
    4001    4002    4002    4003    4003    4004    4004    4005
    4005    4006    4006    4007    4007    4008    4008    4009
    4009    4010    4010    4011    4011    4012    4012    4013
    4013    4014    4014    4015    4015    4016    4016    4017
    4017    4018    4018    4019    4019    4020    4020    4021
    4021    4022    4022    4023    4023    4024    4024    4025
    4025    4026    4026    4027    4027    4028    4028    4029
    4029    4030    4030    4031    4031    4032    4032    4033
    4033    4034    4034    4035    4035    4036    4036    4037
    4037    4038    4038    4039    4039    4040    4040    4041
    4041    4042    4042    4043    4043    4044    4044    4045
    4045    4046    4046    4047    4047    4048    4048    4049
    4049    4050    4050    4051    4051    4052    4052    4053
    4053    4054    4054    4055    4055    4056    4056    4057
    4057    4058    4058    4059    4059    4060    4060    4061
    4061    4062    4062    4063    4063    4064    4064    4065
    4065    4066    4066    4067    4067    4068    4068    4069
    4069    4070    4070    4071    4071    4072    4072    4073
    4073    4074    4074    4075    4075    4076    4076    4077
    4077    4078    4078    4079    4079    4080    4080    4081
    4081    4082    4082    4083    4083    4084    4084    4085
    4085    4086    4086    4087    4087    4088    4088    4089
    4089    4090    4090    4091    4091    4092    4092    4093
    4093    4094    4094    4095    4095    4096    4096    4097
    4097    4098    4098    4099    4099    4100    4100    4101
    4101    4102    4102    4103    4103    4104    4104    4105
    4105    4106    4106    4107    4107    4108    4108    4109
    4109    4110    4110    4111    4111    4112    4112    4113
    4113    4114    4114    4115    4115    4116    4116    4117
    4117    4118    4118    4119    4119    4120    4120    4121
    4121    4122    4122    4123    4123    4124    4124    4125
    4125    4126    4126    4127    4127    4128    4128    4129
    4129    4130    4130    4131    4131    4132    4132    4133
    4133    4134    4134    4135    4135    4136    4136    4137
    4137    4138    4138    4139    4139    4140    4140    4141
    4141    4142    4142    4143    4143    4144    4144    4145
    4145    4146    4146    4147    4147    4148    4148    4149
    4149    4150    4150    4151    4151    4152    4152    4153
    4153    4154    4154    4155    4155    4156    4156    4157
    4157    4158    4158    4159    4159    4160    4160    4161
    4161    4162    4162    4163    4163    4164    4164    4165
    4165    4166    4166    4167    4167    4168    4168    4169
    4169    4170    4170    4171    4171    4172    4172    4173
    4173    4174    4174    4175    4175    4176    4176    4177
    4177    4178    4178    4179    4179    4180    4180    4181
    4181    4182    4182    4183    4183    4184    4184    4185
    4185    4186    4186    4187    4187    4188    4188    4189
    4189    4190    4190    4191    4191    4192    4192    4193
    4193    4194    4194    4195    4195    4196    4196    4197
    4197    4198    4198    4199    4199    4200    4200    4201
    4201    4202    4202    4203    4203    4204    4204    4205
    4205    4206    4206    4207    4207    4208    4208    4209
    4209    4210    4210    4211    4211    4212    4212    4213
    4213    4214    4214    4215    4215    4216    4216    4217
    4217    4218    4218    4219    4219    4220    4220    4221
    4221    4222    4222    4223    4223    4224    4224    4225
    4225    4226    4226    4227    4227    4228    4228    4229
    4229    4230    4230    4231    4231    4232    4232    4233
    4233    4234    4234    4235    4235    4236    4236    4237
    4237    4238    4238    4239    4239    4240    4240    4241
    4241    4242    4242    4243    4243    4244    4244    4245
    4245    4246    4246    4247    4247    4248    4248    4249
    4249    4250    4250    4251    4251    4252    4252    4253
    4253    4254    4254    4255    4255    4256    4256    4257
    4257    4258    4258    4259    4259    4260    4260    4261
    4261    4262    4262    4263    4263    4264    4264    4265
    4265    4266    4266    4267    4267    4268    4268    4269
    4269    4270    4270    4271    4271    4272    4272    4273
    4273    4274    4274    4275    4275    4276    4276    4277
    4277    4278    4278    4279    4279    4280    4280    4281
    4281    4282    4282    4283    4283    4284    4284    4285
    4285    4286    4286    4287    4287    4288    4288    4289
    4289    4290    4290    4291    4291    4292    4292    4293
    4293    4294    4294    4295    4295    4296    4296    4297
    4297    4298    4298    4299    4299    4300    4300    4301
    4301    4302    4302    4303    4303    4304    4304    4305
    4305    4306    4306    4307    4307    4308    4308    4309
    4309    4310    4310    4311    4311    4312    4312    4313
    4313    4314    4314    4315    4315    4316    4316    4317
    4317    4318    4318    4319    4319    4320    4320    4321
    4321    4322    4322    4323    4323    4324    4324    4325
    4325    4326    4326    4327    4327    4328    4328    4329
    4329    4330    4330    4331    4331    4332    4332    4333
    4333    4334    4334    4335    4335    4336    4336    4337
    4337    4338    4338    4339    4339    4340    4340    4341
    4341    4342    4342    4343    4343    4344    4344    4345
    4345    4346    4346    4347    4347    4348    4348    4349
    4349    4350    4350    4351    4351    4352    4352    4353
    4353    4354    4354    4355    4355    4356    4356    4357
    4357    4358    4358    4359    4359    4360    4360    4361
    4361    4362    4362    4363    4363    4364    4364    4365
    4365    4366    4366    4367    4367    4368    4368    4369
    4369    4370    4370    4371    4371    4372    4372    4373
    4373    4374    4374    4375    4375    4376    4376    4377
    4377    4378    4378    4379    4379    4380    4380    4381
    4381    4382    4382    4383    4383    4384    4384    4385
    4385    4386    4386    4387    4387    4388    4388    4389
    4389    4390    4390    4391    4391    4392    4392    4393
    4393    4394    4394    4395    4395    4396    4396    4397
    4397    4398    4398    4399    4399    4400    4400    4401
    4401    4402    4402    4403    4403    4404    4404    4405
    4405    4406    4406    4407    4407    4408    4408    4409
    4409    4410    4410    4411    4411    4412    4412    4413
    4413    4414    4414    4415    4415    4416    4416    4417
    4417    4418    4418    4419    4419    4420    4420    4421
    4421    4422    4422    4423    4423    4424    4424    4425
    4425    4426    4426    4427    4427    4428    4428    4429
    4429    4430    4430    4431    4431    4432    4432    4433
    4433    4434    4434    4435    4435    4436    4436    4437
    4437    4438    4438    4439    4439    4440    4440    4441
    4441    4442    4442    4443    4443    4444    4444    4445
    4445    4446    4446    4447    4447    4448    4448    4449
    4449    4450    4450    4451    4451    4452    4452    4453
    4453    4454    4454    4455    4455    4456    4456    4457
    4457    4458    4458    4459    4459    4460    4460    4461
    4461    4462    4462    4463    4463    4464    4464    4465
    4465    4466    4466    4467    4467    4468    4468    4469
    4469    4470    4470    4471    4471    4472    4472    4473
    4473    4474    4474    4475    4475    4476    4476    4477
    4477    4478    4478    4479    4479    4480    4480    4481
    4481    4482    4482    4483    4483    4484    4484    4485
    4485    4486    4486    4487    4487    4488    4488    4489
    4489    4490    4490    4491    4491    4492    4492    4493
    4493    4494    4494    4495    4495    4496    4496    4497
    4497    4498    4498    4499    4499    4500    4500    4501
    4501    4502    4502    4503    4503    4504    4504    4505
    4505    4506    4506    4507    4507    4508    4508    4509
    4509    4510    4510    4511    4511    4512    4512    4513
    4513    4514    4514    4515    4515    4516    4516    4517
    4517    4518    4518    4519    4519    4520    4520    4521
    4521    4522    4522    4523    4523    4524    4524    4525
    4525    4526    4526    4527    4527    4528    4528    4529
    4529    4530    4530    4531    4531    4532    4532    4533
    4533    4534    4534    4535    4535    4536    4536    4537
    4537    4538    4538    4539    4539    4540    4540    4541
    4541    4542    4542    4543    4543    4544    4544    4545
    4545    4546    4546    4547    4547    4548    4548    4549
    4549    4550    4550    4551    4551    4552    4552    4553
    4553    4554    4554    4555    4555    4556    4556    4557
    4557    4558    4558    4559    4559    4560    4560    4561
    4561    4562    4562    4563    4563    4564    4564    4565
    4565    4566    4566    4567    4567    4568    4568    4569
    4569    4570    4570    4571    4571    4572    4572    4573
    4573    4574    4574    4575    4575    4576    4576    4577
    4577    4578    4578    4579    4579    4580    4580    4581
    4581    4582    4582    4583    4583    4584    4584    4585
    4585    4586    4586    4587    4587    4588    4588    4589
    4589    4590    4590    4591    4591    4592    4592    4593
    4593    4594    4594    4595    4595    4596    4596    4597
    4597    4598    4598    4599    4599    4600    4600    4601
    4601    4602    4602    4603    4603    4604    4604    4605
    4605    4606    4606    4607    4607    4608    4608    4609
    4609    4610    4610    4611    4611    4612    4612    4613
    4613    4614    4614    4615    4615    4616    4616    4617
    4617    4618    4618    4619    4619    4620    4620    4621
    4621    4622    4622    4623    4623    4624    4624    4625
    4625    4626    4626    4627    4627    4628    4628    4629
    4629    4630    4630    4631    4631    4632    4632    4633
    4633    4634    4634    4635    4635    4636    4636    4637
    4637    4638    4638    4639    4639    4640    4640    4641
    4641    4642    4642    4643    4643    4644    4644    4645
    4645    4646    4646    4647    4647    4648    4648    4649
    4649    4650    4650    4651    4651    4652    4652    4653
    4653    4654    4654    4655    4655    4656    4656    4657
    4657    4658    4658    4659    4659    4660    4660    4661
    4661    4662    4662    4663    4663    4664    4664    4665
    4665    4666    4666    4667    4667    4668    4668    4669
    4669    4670    4670    4671    4671    4672    4672    4673
    4673    4674    4674    4675    4675    4676    4676    4677
    4677    4678    4678    4679    4679    4680    4680    4681
    4681    4682    4682    4683    4683    4684    4684    4685
    4685    4686    4686    4687    4687    4688    4688    4689
    4689    4690    4690    4691    4691    4692    4692    4693
    4693    4694    4694    4695    4695    4696    4696    4697
    4697    4698    4698    4699    4699    4700    4700    4701
    4701    4702    4702    4703    4703    4704    4704    4705
    4705    4706    4706    4707    4707    4708    4708    4709
    4709    4710    4710    4711    4711    4712    4712    4713
    4713    4714    4714    4715    4715    4716    4716    4717
    4717    4718    4718    4719    4719    4720    4720    4721
    4721    4722    4722    4723    4723    4724    4724    4725
    4725    4726    4726    4727    4727    4728    4728    4729
    4729    4730    4730    4731    4731    4732    4732    4733
    4733    4734    4734    4735    4735    4736    4736    4737
    4737    4738    4738    4739    4739    4740    4740    4741
    4741    4742    4742    4743    4743    4744    4744    4745
    4745    4746    4746    4747    4747    4748    4748    4749
    4749    4750    4750    4751    4751    4752    4752    4753
    4753    4754    4754    4755    4755    4756    4756    4757
    4757    4758    4758    4759    4759    4760    4760    4761
    4761    4762    4762    4763    4763    4764    4764    4765
    4765    4766    4766    4767    4767    4768    4768    4769
    4769    4770    4770    4771    4771    4772    4772    4773
    4773    4774    4774    4775    4775    4776    4776    4777
    4777    4778    4778    4779    4779    4780    4780    4781
    4781    4782    4782    4783    4783    4784    4784    4785
    4785    4786    4786    4787    4787    4788    4788    4789
    4789    4790    4790    4791    4791    4792    4792    4793
    4793    4794    4794    4795    4795    4796    4796    4797
    4797    4798    4798    4799    4799    4800    4800    4801
    4801    4802    4802    4803    4803    4804    4804    4805
    4805    4806    4806    4807    4807    4808    4808    4809
    4809    4810    4810    4811    4811    4812    4812    4813
    4813    4814    4814    4815    4815    4816    4816    4817
    4817    4818    4818    4819    4819    4820    4820    4821
    4821    4822    4822    4823    4823    4824    4824    4825
    4825    4826    4826    4827    4827    4828    4828    4829
    4829    4830    4830    4831    4831    4832    4832    4833
    4833    4834    4834    4835    4835    4836    4836    4837
    4837    4838    4838    4839    4839    4840    4840    4841
    4841    4842    4842    4843    4843    4844    4844    4845
    4845    4846    4846    4847    4847    4848    4848    4849
    4849    4850    4850    4851    4851    4852    4852    4853
    4853    4854    4854    4855    4855    4856    4856    4857
    4857    4858    4858    4859    4859    4860    4860    4861
    4861    4862    4862    4863    4863    4864    4864    4865
    4865    4866    4866    4867    4867    4868    4868    4869
    4869    4870    4870    4871    4871    4872    4872    4873
    4873    4874    4874    4875    4875    4876    4876    4877
    4877    4878    4878    4879    4879    4880    4880    4881
    4881    4882    4882    4883    4883    4884    4884    4885
    4885    4886    4886    4887    4887    4888    4888    4889
    4889    4890    4890    4891    4891    4892    4892    4893
    4893    4894    4894    4895    4895    4896    4896    4897
    4897    4898    4898    4899    4899    4900    4900    4901
    4901    4902    4902    4903    4903    4904    4904    4905
    4905    4906    4906    4907    4907    4908    4908    4909
    4909    4910    4910    4911    4911    4912    4912    4913
    4913    4914    4914    4915    4915    4916    4916    4917
    4917    4918    4918    4919    4919    4920    4920    4921
    4921    4922    4922    4923    4923    4924    4924    4925
    4925    4926    4926    4927    4927    4928    4928    4929
    4929    4930    4930    4931    4931    4932    4932    4933
    4933    4934    4934    4935    4935    4936    4936    4937
    4937    4938    4938    4939    4939    4940    4940    4941
    4941    4942    4942    4943    4943    4944    4944    4945
    4945    4946    4946    4947    4947    4948    4948    4949
    4949    4950    4950    4951    4951    4952    4952    4953
    4953    4954    4954    4955    4955    4956    4956    4957
    4957    4958    4958    4959    4959    4960    4960    4961
    4961    4962    4962    4963    4963    4964    4964    4965
    4965    4966    4966    4967    4967    4968    4968    4969
    4969    4970    4970    4971    4971    4972    4972    4973
    4973    4974    4974    4975    4975    4976    4976    4977
    4977    4978    4978    4979    4979    4980    4980    4981
    4981    4982    4982    4983    4983    4984    4984    4985
    4985    4986    4986    4987    4987    4988    4988    4989
    4989    4990    4990    4991    4991    4992    4992    4993
    4993    4994    4994    4995    4995    4996    4996    4997
    4997    4998    4998    4999    4999    5000    5000    5001
    5001    5002    5002    5003    5003    5004    5004    5005
    5005    5006    5006    5007    5007    5008    5008    5009
    5009    5010    5010    5011    5011    5012    5012    5013
    5013    5014    5014    5015    5015    5016    5016    5017
    5017    5018    5018    5019    5019    5020    5020    5021
    5021    5022    5022    5023    5023    5024    5024    5025
    5025    5026    5026    5027    5027    5028    5028    5029
    5029    5030    5030    5031    5031    5032    5032    5033
    5033    5034    5034    5035    5035    5036    5036    5037
    5037    5038    5038    5039    5039    5040    5040    5041
    5041    5042    5042    5043    5043    5044    5044    5045
    5045    5046    5046    5047    5047    5048    5048    5049
    5049    5050    5050    5051    5051    5052    5052    5053
    5053    5054    5054    5055    5055    5056    5056    5057
    5057    5058    5058    5059    5059    5060    5060    5061
    5061    5062    5062    5063    5063    5064    5064    5065
    5065    5066    5066    5067    5067    5068    5068    5069
    5069    5070    5070    5071    5071    5072    5072    5073
    5073    5074    5074    5075    5075    5076    5076    5077
    5077    5078    5078    5079    5079    5080    5080    5081
    5081    5082    5082    5083    5083    5084    5084    5085
    5085    5086    5086    5087    5087    5088    5088    5089
    5089    5090    5090    5091    5091    5092    5092    5093
    5093    5094    5094    5095    5095    5096    5096    5097
    5097    5098    5098    5099    5099    5100    5100    5101
    5101    5102    5102    5103    5103    5104    5104    5105
    5105    5106    5106    5107    5107    5108    5108    5109
    5109    5110    5110    5111    5111    5112    5112    5113
    5113    5114    5114    5115    5115    5116    5116    5117
    5117    5118    5118    5119    5119    5120    5120    5121
    5121    5122    5122    5123    5123    5124    5124    5125
    5125    5126    5126    5127    5127    5128    5128    5129
    5129    5130    5130    5131    5131    5132    5132    5133
    5133    5134    5134    5135    5135    5136    5136    5137
    5137    5138    5138    5139    5139    5140    5140    5141
    5141    5142    5142    5143    5143    5144    5144    5145
    5145    5146    5146    5147    5147    5148    5148    5149
    5149    5150    5150    5151    5151    5152    5152    5153
    5153    5154    5154    5155    5155    5156    5156    5157
    5157    5158    5158    5159    5159    5160    5160    5161
    5161    5162    5162    5163    5163    5164    5164    5165
    5165    5166    5166    5167    5167    5168    5168    5169
    5169    5170    5170    5171    5171    5172    5172    5173
    5173    5174    5174    5175    5175    5176    5176    5177
    5177    5178    5178    5179    5179    5180    5180    5181
    5181    5182    5182    5183    5183    5184    5184    5185
    5185    5186    5186    5187    5187    5188    5188    5189
    5189    5190    5190    5191    5191    5192    5192    5193
    5193    5194    5194    5195    5195    5196    5196    5197
    5197    5198    5198    5199    5199    5200    5200    5201
    5201    5202    5202    5203    5203    5204    5204    5205
    5205    5206    5206    5207    5207    5208    5208    5209
    5209    5210    5210    5211    5211    5212    5212    5213
    5213    5214    5214    5215    5215    5216    5216    5217
    5217    5218    5218    5219    5219    5220    5220    5221
    5221    5222    5222    5223    5223    5224    5224    5225
    5225    5226    5226    5227    5227    5228    5228    5229
    5229    5230    5230    5231    5231    5232    5232    5233
    5233    5234    5234    5235    5235    5236    5236    5237
    5237    5238    5238    5239    5239    5240    5240    5241
    5241    5242    5242    5243    5243    5244    5244    5245
    5245    5246    5246    5247    5247    5248    5248    5249
    5249    5250    5250    5251    5251    5252    5252    5253
    5253    5254    5254    5255    5255    5256    5256    5257
    5257    5258    5258    5259    5259    5260    5260    5261
    5261    5262    5262    5263    5263    5264    5264    5265
    5265    5266    5266    5267    5267    5268    5268    5269
    5269    5270    5270    5271    5271    5272    5272    5273
    5273    5274    5274    5275    5275    5276    5276    5277
    5277    5278    5278    5279    5279    5280    5280    5281
    5281    5282    5282    5283    5283    5284    5284    5285
    5285    5286    5286    5287    5287    5288    5288    5289
    5289    5290    5290    5291    5291    5292    5292    5293
    5293    5294    5294    5295    5295    5296    5296    5297
    5297    5298    5298    5299    5299    5300    5300    5301
    5301    5302    5302    5303    5303    5304    5304    5305
    5305    5306    5306    5307    5307    5308    5308    5309
    5309    5310    5310    5311    5311    5312    5312    5313
    5313    5314    5314    5315    5315    5316    5316    5317
    5317    5318    5318    5319    5319    5320    5320    5321
    5321    5322    5322    5323    5323    5324    5324    5325
    5325    5326    5326    5327    5327    5328    5328    5329
    5329    5330    5330    5331    5331    5332    5332    5333
    5333    5334    5334    5335    5335    5336    5336    5337
    5337    5338    5338    5339    5339    5340    5340    5341
    5341    5342    5342    5343    5343    5344    5344    5345
    5345    5346    5346    5347    5347    5348    5348    5349
    5349    5350    5350    5351    5351    5352    5352    5353
    5353    5354    5354    5355    5355    5356    5356    5357
    5357    5358    5358    5359    5359    5360    5360    5361
    5361    5362    5362    5363    5363    5364    5364    5365
    5365    5366    5366    5367    5367    5368    5368    5369
    5369    5370    5370    5371    5371    5372    5372    5373
    5373    5374    5374    5375    5375    5376    5376    5377
    5377    5378    5378    5379    5379    5380    5380    5381
    5381    5382    5382    5383    5383    5384    5384    5385
    5385    5386    5386    5387    5387    5388    5388    5389
    5389    5390    5390    5391    5391    5392    5392    5393
    5393    5394    5394    5395    5395    5396    5396    5397
    5397    5398    5398    5399    5399    5400    5400    5401
    5401    5402    5402    5403    5403    5404    5404    5405
    5405    5406    5406    5407    5407    5408    5408    5409
    5409    5410    5410    5411    5411    5412    5412    5413
    5413    5414    5414    5415    5415    5416    5416    5417
    5417    5418    5418    5419    5419    5420    5420    5421
    5421    5422    5422    5423    5423    5424    5424    5425
    5425    5426    5426    5427    5427    5428    5428    5429
    5429    5430    5430    5431    5431    5432    5432    5433
    5433    5434    5434    5435    5435    5436    5436    5437
    5437    5438    5438    5439    5439    5440    5440    5441
    5441    5442    5442    5443    5443    5444    5444    5445
    5445    5446    5446    5447    5447    5448    5448    5449
    5449    5450    5450    5451    5451    5452    5452    5453
    5453    5454    5454    5455    5455    5456    5456    5457
    5457    5458    5458    5459    5459    5460    5460    5461
    5461    5462    5462    5463    5463    5464    5464    5465
    5465    5466    5466    5467    5467    5468    5468    5469
    5469    5470    5470    5471    5471    5472    5472    5473
    5473    5474    5474    5475    5475    5476    5476    5477
    5477    5478    5478    5479    5479    5480    5480    5481
    5481    5482    5482    5483    5483    5484    5484    5485
    5485    5486    5486    5487    5487    5488    5488    5489
    5489    5490    5490    5491    5491    5492    5492    5493
    5493    5494    5494    5495    5495    5496    5496    5497
    5497    5498    5498    5499    5499    5500    5500    5501
    5501    5502    5502    5503    5503    5504    5504    5505
    5505    5506    5506    5507    5507    5508    5508    5509
    5509    5510    5510    5511    5511    5512    5512    5513
    5513    5514    5514    5515    5515    5516    5516    5517
    5517    5518    5518    5519    5519    5520    5520    5521
    5521    5522    5522    5523    5523    5524    5524    5525
    5525    5526    5526    5527    5527    5528    5528    5529
    5529    5530    5530    5531    5531    5532    5532    5533
    5533    5534    5534    5535    5535    5536    5536    5537
    5537    5538    5538    5539    5539    5540    5540    5541
    5541    5542    5542    5543    5543    5544    5544    5545
    5545    5546    5546    5547    5547    5548    5548    5549
    5549    5550    5550    5551    5551    5552    5552    5553
    5553    5554    5554    5555    5555    5556    5556    5557
    5557    5558    5558    5559    5559    5560    5560    5561
    5561    5562    5562    5563    5563    5564    5564    5565
    5565    5566    5566    5567    5567    5568    5568    5569
    5569    5570    5570    5571    5571    5572    5572    5573
    5573    5574    5574    5575    5575    5576    5576    5577
    5577    5578    5578    5579    5579    5580    5580    5581
    5581    5582    5582    5583    5583    5584    5584    5585
    5585    5586    5586    5587    5587    5588    5588    5589
    5589    5590    5590    5591    5591    5592    5592    5593
    5593    5594    5594    5595    5595    5596    5596    5597
    5597    5598    5598    5599    5599    5600    5600    5601
    5601    5602    5602    5603    5603    5604    5604    5605
    5605    5606    5606    5607    5607    5608    5608    5609
    5609    5610    5610    5611    5611    5612    5612    5613
    5613    5614    5614    5615    5615    5616    5616    5617
    5617    5618    5618    5619    5619    5620    5620    5621
    5621    5622    5622    5623    5623    5624    5624    5625
    5625    5626    5626    5627    5627    5628    5628    5629
    5629    5630    5630    5631    5631    5632    5632    5633
    5633    5634    5634    5635    5635    5636    5636    5637
    5637    5638    5638    5639    5639    5640    5640    5641
    5641    5642    5642    5643    5643    5644    5644    5645
    5645    5646    5646    5647    5647    5648    5648    5649
    5649    5650    5650    5651    5651    5652    5652    5653
    5653    5654    5654    5655    5655    5656    5656    5657
    5657    5658    5658    5659    5659    5660    5660    5661
    5661    5662    5662    5663    5663    5664    5664    5665
    5665    5666    5666    5667    5667    5668    5668    5669
    5669    5670    5670    5671    5671    5672    5672    5673
    5673    5674    5674    5675    5675    5676    5676    5677
    5677    5678    5678    5679    5679    5680    5680    5681
    5681    5682    5682    5683    5683    5684    5684    5685
    5685    5686    5686    5687    5687    5688    5688    5689
    5689    5690    5690    5691    5691    5692    5692    5693
    5693    5694    5694    5695    5695    5696    5696    5697
    5697    5698    5698    5699    5699    5700    5700    5701
    5701    5702    5702    5703    5703    5704    5704    5705
    5705    5706    5706    5707    5707    5708    5708    5709
    5709    5710    5710    5711    5711    5712    5712    5713
    5713    5714    5714    5715    5715    5716    5716    5717
    5717    5718    5718    5719    5719    5720    5720    5721
    5721    5722    5722    5723    5723    5724    5724    5725
    5725    5726    5726    5727    5727    5728    5728    5729
    5729    5730    5730    5731    5731    5732    5732    5733
    5733    5734    5734    5735    5735    5736    5736    5737
    5737    5738    5738    5739    5739    5740    5740    5741
    5741    5742    5742    5743    5743    5744    5744    5745
    5745    5746    5746    5747    5747    5748    5748    5749
    5749    5750    5750    5751    5751    5752    5752    5753
    5753    5754    5754    5755    5755    5756    5756    5757
    5757    5758    5758    5759    5759    5760    5760    5761
    5761    5762    5762    5763    5763    5764    5764    5765
    5765    5766    5766    5767    5767    5768    5768    5769
    5769    5770    5770    5771    5771    5772    5772    5773
    5773    5774    5774    5775    5775    5776    5776    5777
    5777    5778    5778    5779    5779    5780    5780    5781
    5781    5782    5782    5783    5783    5784    5784    5785
    5785    5786    5786    5787    5787    5788    5788    5789
    5789    5790    5790    5791    5791    5792    5792    5793
    5793    5794    5794    5795    5795    5796    5796    5797
    5797    5798    5798    5799    5799    5800    5800    5801
    5801    5802    5802    5803    5803    5804    5804    5805
    5805    5806    5806    5807    5807    5808    5808    5809
    5809    5810    5810    5811    5811    5812    5812    5813
    5813    5814    5814    5815    5815    5816    5816    5817
    5817    5818    5818    5819    5819    5820    5820    5821
    5821    5822    5822    5823    5823    5824    5824    5825
    5825    5826    5826    5827    5827    5828    5828    5829
    5829    5830    5830    5831    5831    5832    5832    5833
    5833    5834    5834    5835    5835    5836    5836    5837
    5837    5838    5838    5839    5839    5840    5840    5841
    5841    5842    5842    5843    5843    5844    5844    5845
    5845    5846    5846    5847    5847    5848    5848    5849
    5849    5850    5850    5851    5851    5852    5852    5853
    5853    5854    5854    5855    5855    5856    5856    5857
    5857    5858    5858    5859    5859    5860    5860    5861
    5861    5862    5862    5863    5863    5864    5864    5865
    5865    5866    5866    5867    5867    5868    5868    5869
    5869    5870    5870    5871    5871    5872    5872    5873
    5873    5874    5874    5875    5875    5876    5876    5877
    5877    5878    5878    5879    5879    5880    5880    5881
    5881    5882    5882    5883    5883    5884    5884    5885
    5885    5886    5886    5887    5887    5888    5888    5889
    5889    5890    5890    5891    5891    5892    5892    5893
    5893    5894    5894    5895    5895    5896    5896    5897
    5897    5898    5898    5899    5899    5900    5900    5901
    5901    5902    5902    5903    5903    5904    5904    5905
    5905    5906    5906    5907    5907    5908    5908    5909
    5909    5910    5910    5911    5911    5912    5912    5913
    5913    5914    5914    5915    5915    5916    5916    5917
    5917    5918    5918    5919    5919    5920    5920    5921
    5921    5922    5922    5923    5923    5924    5924    5925
    5925    5926    5926    5927    5927    5928    5928    5929
    5929    5930    5930    5931    5931    5932    5932    5933
    5933    5934    5934    5935    5935    5936    5936    5937
    5937    5938    5938    5939    5939    5940    5940    5941
    5941    5942    5942    5943    5943    5944    5944    5945
    5945    5946    5946    5947    5947    5948    5948    5949
    5949    5950    5950    5951    5951    5952    5952    5953
    5953    5954    5954    5955    5955    5956    5956    5957
    5957    5958    5958    5959    5959    5960    5960    5961
    5961    5962    5962    5963    5963    5964    5964    5965
    5965    5966    5966    5967    5967    5968    5968    5969
    5969    5970    5970    5971    5971    5972    5972    5973
    5973    5974    5974    5975    5975    5976    5976    5977
    5977    5978    5978    5979    5979    5980    5980    5981
    5981    5982    5982    5983    5983    5984    5984    5985
    5985    5986    5986    5987    5987    5988    5988    5989
    5989    5990    5990    5991    5991    5992    5992    5993
    5993    5994    5994    5995    5995    5996    5996    5997
    5997    5998    5998    5999    5999    6000    6000    6001
    6001    6002    6002    6003    6003    6004    6004    6005
    6005    6006    6006    6007    6007    6008    6008    6009
    6009    6010    6010    6011    6011    6012    6012    6013
    6013    6014    6014    6015    6015    6016    6016    6017
    6017    6018    6018    6019    6019    6020    6020    6021
    6021    6022    6022    6023    6023    6024    6024    6025
    6025    6026    6026    6027    6027    6028    6028    6029
    6029    6030    6030    6031    6031    6032    6032    6033
    6033    6034    6034    6035    6035    6036    6036    6037
    6037    6038    6038    6039    6039    6040    6040    6041
    6041    6042    6042    6043    6043    6044    6044    6045
    6045    6046    6046    6047    6047    6048    6048    6049
    6049    6050    6050    6051    6051    6052    6052    6053
    6053    6054    6054    6055    6055    6056    6056    6057
    6057    6058    6058    6059    6059    6060    6060    6061
    6061    6062    6062    6063    6063    6064    6064    6065
    6065    6066    6066    6067    6067    6068    6068    6069
    6069    6070    6070    6071    6071    6072    6072    6073
    6073    6074    6074    6075    6075    6076    6076    6077
    6077    6078    6078    6079    6079    6080    6080    6081
    6081    6082    6082    6083    6083    6084    6084    6085
    6085    6086    6086    6087    6087    6088    6088    6089
    6089    6090    6090    6091    6091    6092    6092    6093
    6093    6094    6094    6095    6095    6096    6096    6097
    6097    6098    6098    6099    6099    6100    6100    6101
    6101    6102    6102    6103    6103    6104    6104    6105
    6105    6106    6106    6107    6107    6108    6108    6109
    6109    6110    6110    6111    6111    6112    6112    6113
    6113    6114    6114    6115    6115    6116    6116    6117
    6117    6118    6118    6119    6119    6120    6120    6121
    6121    6122    6122    6123    6123    6124    6124    6125
    6125    6126    6126    6127    6127    6128    6128    6129
    6129    6130    6130    6131    6131    6132    6132    6133
    6133    6134    6134    6135    6135    6136    6136    6137
    6137    6138    6138    6139    6139    6140    6140    6141
    6141    6142    6142    6143    6143    6144    6144    6145
    6145    6146    6146    6147    6147    6148    6148    6149
    6149    6150    6150    6151    6151    6152    6152    6153
    6153    6154    6154    6155    6155    6156    6156    6157
    6157    6158    6158    6159    6159    6160    6160    6161
    6161    6162    6162    6163    6163    6164    6164    6165
    6165    6166    6166    6167    6167    6168    6168    6169
    6169    6170    6170    6171    6171    6172    6172    6173
    6173    6174    6174    6175    6175    6176    6176    6177
    6177    6178    6178    6179    6179    6180    6180    6181
    6181    6182    6182    6183    6183    6184    6184    6185
    6185    6186    6186    6187    6187    6188    6188    6189
    6189    6190    6190    6191    6191    6192    6192    6193
    6193    6194    6194    6195    6195    6196    6196    6197
    6197    6198    6198    6199    6199    6200    6200    6201
    6201    6202    6202    6203    6203    6204    6204    6205
    6205    6206    6206    6207    6207    6208    6208    6209
    6209    6210    6210    6211    6211    6212    6212    6213
    6213    6214    6214    6215    6215    6216    6216    6217
    6217    6218    6218    6219    6219    6220    6220    6221
    6221    6222    6222    6223    6223    6224    6224    6225
    6225    6226    6226    6227    6227    6228    6228    6229
    6229    6230    6230    6231    6231    6232    6232    6233
    6233    6234    6234    6235    6235    6236    6236    6237
    6237    6238    6238    6239    6239    6240    6240    6241
    6241    6242    6242    6243    6243    6244    6244    6245
    6245    6246    6246    6247    6247    6248    6248    6249
    6249    6250    6250    6251    6251    6252    6252    6253
    6253    6254    6254    6255    6255    6256    6256    6257
    6257    6258    6258    6259    6259    6260    6260    6261
    6261    6262    6262    6263    6263    6264    6264    6265
    6265    6266    6266    6267    6267    6268    6268    6269
    6269    6270    6270    6271    6271    6272    6272    6273
    6273    6274    6274    6275    6275    6276    6276    6277
    6277    6278    6278    6279    6279    6280    6280    6281
    6281    6282    6282    6283    6283    6284    6284    6285
    6285    6286    6286    6287    6287    6288    6288    6289
    6289    6290    6290    6291    6291    6292    6292    6293
    6293    6294    6294    6295    6295    6296    6296    6297
    6297    6298    6298    6299    6299    6300    6300    6301
    6301    6302    6302    6303    6303    6304    6304    6305
    6305    6306    6306    6307    6307    6308    6308    6309
    6309    6310    6310    6311    6311    6312    6312    6313
    6313    6314    6314    6315    6315    6316    6316    6317
    6317    6318    6318    6319    6319    6320    6320    6321
    6321    6322    6322    6323    6323    6324    6324    6325
    6325    6326    6326    6327    6327    6328    6328    6329
    6329    6330    6330    6331    6331    6332    6332    6333
    6333    6334    6334    6335    6335    6336    6336    6337
    6337    6338    6338    6339    6339    6340    6340    6341
    6341    6342    6342    6343    6343    6344    6344    6345
    6345    6346    6346    6347    6347    6348    6348    6349
    6349    6350    6350    6351    6351    6352    6352    6353
    6353    6354    6354    6355    6355    6356    6356    6357
    6357    6358    6358    6359    6359    6360    6360    6361
    6361    6362    6362    6363    6363    6364    6364    6365
    6365    6366    6366    6367    6367    6368    6368    6369
    6369    6370    6370    6371    6371    6372    6372    6373
    6373    6374    6374    6375    6375    6376    6376    6377
    6377    6378    6378    6379    6379    6380    6380    6381
    6381    6382    6382    6383    6383    6384    6384    6385
    6385    6386    6386    6387    6387    6388    6388    6389
    6389    6390    6390    6391    6391    6392    6392    6393
    6393    6394    6394    6395    6395    6396    6396    6397
    6397    6398    6398    6399    6399    6400    6400    6401
    6401    6402    6402    6403    6403    6404    6404    6405
    6405    6406    6406    6407    6407    6408    6408    6409
    6409    6410    6410    6411    6411    6412    6412    6413
    6413    6414    6414    6415    6415    6416    6416    6417
    6417    6418    6418    6419    6419    6420    6420    6421
    6421    6422    6422    6423    6423    6424    6424    6425
    6425    6426    6426    6427    6427    6428    6428    6429
    6429    6430    6430    6431    6431    6432    6432    6433
    6433    6434    6434    6435    6435    6436    6436    6437
    6437    6438    6438    6439    6439    6440    6440    6441
    6441    6442    6442    6443    6443    6444    6444    6445
    6445    6446    6446    6447    6447    6448    6448    6449
    6449    6450    6450    6451    6451    6452    6452    6453
    6453    6454    6454    6455    6455    6456    6456    6457
    6457    6458    6458    6459    6459    6460    6460    6461
    6461    6462    6462    6463    6463    6464    6464    6465
    6465    6466    6466    6467    6467    6468    6468    6469
    6469    6470    6470    6471    6471    6472    6472    6473
    6473    6474    6474    6475    6475    6476    6476    6477
    6477    6478    6478    6479    6479    6480    6480    6481
    6481    6482    6482    6483    6483    6484    6484    6485
    6485    6486    6486    6487    6487    6488    6488    6489
    6489    6490    6490    6491    6491    6492    6492    6493
    6493    6494    6494    6495    6495    6496    6496    6497
    6497    6498    6498    6499    6499    6500    6500    6501
    6501    6502    6502    6503    6503    6504    6504    6505
    6505    6506    6506    6507    6507    6508    6508    6509
    6509    6510    6510    6511    6511    6512    6512    6513
    6513    6514    6514    6515    6515    6516    6516    6517
    6517    6518    6518    6519    6519    6520    6520    6521
    6521    6522    6522    6523    6523    6524    6524    6525
    6525    6526    6526    6527    6527    6528    6528    6529
    6529    6530    6530    6531    6531    6532    6532    6533
    6533    6534    6534    6535    6535    6536    6536    6537
    6537    6538    6538    6539    6539    6540    6540    6541
    6541    6542    6542    6543    6543    6544    6544    6545
    6545    6546    6546    6547    6547    6548    6548    6549
    6549    6550    6550    6551    6551    6552    6552    6553
    6553    6554    6554    6555    6555    6556    6556    6557
    6557    6558    6558    6559    6559    6560    6560    6561
    6561    6562    6562    6563    6563    6564    6564    6565
    6565    6566    6566    6567    6567    6568    6568    6569
    6569    6570    6570    6571    6571    6572    6572    6573
    6573    6574    6574    6575    6575    6576    6576    6577
    6577    6578    6578    6579    6579    6580    6580    6581
    6581    6582    6582    6583    6583    6584    6584    6585
    6585    6586    6586    6587    6587    6588    6588    6589
    6589    6590    6590    6591    6591    6592    6592    6593
    6593    6594    6594    6595    6595    6596    6596    6597
    6597    6598    6598    6599    6599    6600    6600    6601
    6601    6602    6602    6603    6603    6604    6604    6605
    6605    6606    6606    6607    6607    6608    6608    6609
    6609    6610    6610    6611    6611    6612    6612    6613
    6613    6614    6614    6615    6615    6616    6616    6617
    6617    6618    6618    6619    6619    6620    6620    6621
    6621    6622    6622    6623    6623    6624    6624    6625
    6625    6626    6626    6627    6627    6628    6628    6629
    6629    6630    6630    6631    6631    6632    6632    6633
    6633    6634    6634    6635    6635    6636    6636    6637
    6637    6638    6638    6639    6639    6640    6640    6641
    6641    6642    6642    6643    6643    6644    6644    6645
    6645    6646    6646    6647    6647    6648    6648    6649
    6649    6650    6650    6651    6651    6652    6652    6653
    6653    6654    6654    6655    6655    6656    6656    6657
    6657    6658    6658    6659    6659    6660    6660    6661
    6661    6662    6662    6663    6663    6664    6664    6665
    6665    6666    6666    6667    6667    6668    6668    6669
    6669    6670    6670    6671    6671    6672    6672    6673
    6673    6674    6674    6675    6675    6676    6676    6677
    6677    6678    6678    6679    6679    6680    6680    6681
    6681    6682    6682    6683    6683    6684    6684    6685
    6685    6686    6686    6687    6687    6688    6688    6689
    6689    6690    6690    6691    6691    6692    6692    6693
    6693    6694    6694    6695    6695    6696    6696    6697
    6697    6698    6698    6699    6699    6700    6700    6701
    6701    6702    6702    6703    6703    6704    6704    6705
    6705    6706    6706    6707    6707    6708    6708    6709
    6709    6710    6710    6711    6711    6712    6712    6713
    6713    6714    6714    6715    6715    6716    6716    6717
    6717    6718    6718    6719    6719    6720    6720    6721
    6721    6722    6722    6723    6723    6724    6724    6725
    6725    6726    6726    6727    6727    6728    6728    6729
    6729    6730    6730    6731    6731    6732    6732    6733
    6733    6734    6734    6735    6735    6736    6736    6737
    6737    6738    6738    6739    6739    6740    6740    6741
    6741    6742    6742    6743    6743    6744    6744    6745
    6745    6746    6746    6747    6747    6748    6748    6749
    6749    6750    6750    6751    6751    6752    6752    6753
    6753    6754    6754    6755    6755    6756    6756    6757
    6757    6758    6758    6759    6759    6760    6760    6761
    6761    6762    6762    6763    6763    6764    6764    6765
    6765    6766    6766    6767    6767    6768    6768    6769
    6769    6770    6770    6771    6771    6772    6772    6773
    6773    6774    6774    6775    6775    6776    6776    6777
    6777    6778    6778    6779    6779    6780    6780    6781
    6781    6782    6782    6783    6783    6784    6784    6785
    6785    6786    6786    6787    6787    6788    6788    6789
    6789    6790    6790    6791    6791    6792    6792    6793
    6793    6794    6794    6795    6795    6796    6796    6797
    6797    6798    6798    6799    6799    6800    6800    6801
    6801    6802    6802    6803    6803    6804    6804    6805
    6805    6806    6806    6807    6807    6808    6808    6809
    6809    6810    6810    6811    6811    6812    6812    6813
    6813    6814    6814    6815    6815    6816    6816    6817
    6817    6818    6818    6819    6819    6820    6820    6821
    6821    6822    6822    6823    6823    6824    6824    6825
    6825    6826    6826    6827    6827    6828    6828    6829
    6829    6830    6830    6831    6831    6832    6832    6833
    6833    6834    6834    6835    6835    6836    6836    6837
    6837    6838    6838    6839    6839    6840    6840    6841
    6841    6842    6842    6843    6843    6844    6844    6845
    6845    6846    6846    6847    6847    6848    6848    6849
    6849    6850    6850    6851    6851    6852    6852    6853
    6853    6854    6854    6855    6855    6856    6856    6857
    6857    6858    6858    6859    6859    6860    6860    6861
    6861    6862    6862    6863    6863    6864    6864    6865
    6865    6866    6866    6867    6867    6868    6868    6869
    6869    6870    6870    6871    6871    6872    6872    6873
    6873    6874    6874    6875    6875    6876    6876    6877
    6877    6878    6878    6879    6879    6880    6880    6881
    6881    6882    6882    6883    6883    6884    6884    6885
    6885    6886    6886    6887    6887    6888    6888    6889
    6889    6890    6890    6891    6891    6892    6892    6893
    6893    6894    6894    6895    6895    6896    6896    6897
    6897    6898    6898    6899    6899    6900    6900    6901
    6901    6902    6902    6903    6903    6904    6904    6905
    6905    6906    6906    6907    6907    6908    6908    6909
    6909    6910    6910    6911    6911    6912    6912    6913
    6913    6914    6914    6915    6915    6916    6916    6917
    6917    6918    6918    6919    6919    6920    6920    6921
    6921    6922    6922    6923    6923    6924    6924    6925
    6925    6926    6926    6927    6927    6928    6928    6929
    6929    6930    6930    6931    6931    6932    6932    6933
    6933    6934    6934    6935    6935    6936    6936    6937
    6937    6938    6938    6939    6939    6940    6940    6941
    6941    6942    6942    6943    6943    6944    6944    6945
    6945    6946    6946    6947    6947    6948    6948    6949
    6949    6950    6950    6951    6951    6952    6952    6953
    6953    6954    6954    6955    6955    6956    6956    6957
    6957    6958    6958    6959    6959    6960    6960    6961
    6961    6962    6962    6963    6963    6964    6964    6965
    6965    6966    6966    6967    6967    6968    6968    6969
    6969    6970    6970    6971    6971    6972    6972    6973
    6973    6974    6974    6975    6975    6976    6976    6977
    6977    6978    6978    6979    6979    6980    6980    6981
    6981    6982    6982    6983    6983    6984    6984    6985
    6985    6986    6986    6987    6987    6988    6988    6989
    6989    6990    6990    6991    6991    6992    6992    6993
    6993    6994    6994    6995    6995    6996    6996    6997
    6997    6998    6998    6999    6999    7000    7000    7001
    7001    7002    7002    7003    7003    7004    7004    7005
    7005    7006    7006    7007    7007    7008    7008    7009
    7009    7010    7010    7011    7011    7012    7012    7013
    7013    7014    7014    7015    7015    7016    7016    7017
    7017    7018    7018    7019    7019    7020    7020    7021
    7021    7022    7022    7023    7023    7024    7024    7025
    7025    7026    7026    7027    7027    7028    7028    7029
    7029    7030    7030    7031    7031    7032    7032    7033
    7033    7034    7034    7035    7035    7036    7036    7037
    7037    7038    7038    7039    7039    7040    7040    7041
    7041    7042    7042    7043    7043    7044    7044    7045
    7045    7046    7046    7047    7047    7048    7048    7049
    7049    7050    7050    7051    7051    7052    7052    7053
    7053    7054    7054    7055    7055    7056    7056    7057
    7057    7058    7058    7059    7059    7060    7060    7061
    7061    7062    7062    7063    7063    7064    7064    7065
    7065    7066    7066    7067    7067    7068    7068    7069
    7069    7070    7070    7071    7071    7072    7072    7073
    7073    7074    7074    7075    7075    7076    7076    7077
    7077    7078    7078    7079    7079    7080    7080    7081
    7081    7082    7082    7083    7083    7084    7084    7085
    7085    7086    7086    7087    7087    7088    7088    7089
    7089    7090    7090    7091    7091    7092    7092    7093
    7093    7094    7094    7095    7095    7096    7096    7097
    7097    7098    7098    7099    7099    7100    7100    7101
    7101    7102    7102    7103    7103    7104    7104    7105
    7105    7106    7106    7107    7107    7108    7108    7109
    7109    7110    7110    7111    7111    7112    7112    7113
    7113    7114    7114    7115    7115    7116    7116    7117
    7117    7118    7118    7119    7119    7120    7120    7121
    7121    7122    7122    7123    7123    7124    7124    7125
    7125    7126    7126    7127    7127    7128    7128    7129
    7129    7130    7130    7131    7131    7132    7132    7133
    7133    7134    7134    7135    7135    7136    7136    7137
    7137    7138    7138    7139    7139    7140    7140    7141
    7141    7142    7142    7143    7143    7144    7144    7145
    7145    7146    7146    7147    7147    7148    7148    7149
    7149    7150    7150    7151    7151    7152    7152    7153
    7153    7154    7154    7155    7155    7156    7156    7157
    7157    7158    7158    7159    7159    7160    7160    7161
    7161    7162    7162    7163    7163    7164    7164    7165
    7165    7166    7166    7167    7167    7168    7168    7169
    7169    7170    7170    7171    7171    7172    7172    7173
    7173    7174    7174    7175    7175    7176    7176    7177
    7177    7178    7178    7179    7179    7180    7180    7181
    7181    7182    7182    7183    7183    7184    7184    7185
    7185    7186    7186    7187    7187    7188    7188    7189
    7189    7190    7190    7191    7191    7192    7192    7193
    7193    7194    7194    7195    7195    7196    7196    7197
    7197    7198    7198    7199    7199    7200    7200    7201
    7201    7202    7202    7203    7203    7204    7204    7205
    7205    7206    7206    7207    7207    7208    7208    7209
    7209    7210    7210    7211    7211    7212    7212    7213
    7213    7214    7214    7215    7215    7216    7216    7217
    7217    7218    7218    7219    7219    7220    7220    7221
    7221    7222    7222    7223    7223    7224    7224    7225
    7225    7226    7226    7227    7227    7228    7228    7229
    7229    7230    7230    7231    7231    7232    7232    7233
    7233    7234    7234    7235    7235    7236    7236    7237
    7237    7238    7238    7239    7239    7240    7240    7241
    7241    7242    7242    7243    7243    7244    7244    7245
    7245    7246    7246    7247    7247    7248    7248    7249
    7249    7250    7250    7251    7251    7252    7252    7253
    7253    7254    7254    7255    7255    7256    7256    7257
    7257    7258    7258    7259    7259    7260    7260    7261
    7261    7262    7262    7263    7263    7264    7264    7265
    7265    7266    7266    7267    7267    7268    7268    7269
    7269    7270    7270    7271    7271    7272    7272    7273
    7273    7274    7274    7275    7275    7276    7276    7277
    7277    7278    7278    7279    7279    7280    7280    7281
    7281    7282    7282    7283    7283    7284    7284    7285
    7285    7286    7286    7287    7287    7288    7288    7289
    7289    7290    7290    7291    7291    7292    7292    7293
    7293    7294    7294    7295    7295    7296    7296    7297
    7297    7298    7298    7299    7299    7300    7300    7301
    7301    7302    7302    7303    7303    7304    7304    7305
    7305    7306    7306    7307    7307    7308    7308    7309
    7309    7310    7310    7311    7311    7312    7312    7313
    7313    7314    7314    7315    7315    7316    7316    7317
    7317    7318    7318    7319    7319    7320    7320    7321
    7321    7322    7322    7323    7323    7324    7324    7325
    7325    7326    7326    7327    7327    7328    7328    7329
    7329    7330    7330    7331    7331    7332    7332    7333
    7333    7334    7334    7335    7335    7336    7336    7337
    7337    7338    7338    7339    7339    7340    7340    7341
    7341    7342    7342    7343    7343    7344    7344    7345
    7345    7346    7346    7347    7347    7348    7348    7349
    7349    7350    7350    7351    7351    7352    7352    7353
    7353    7354    7354    7355    7355    7356    7356    7357
    7357    7358    7358    7359    7359    7360    7360    7361
    7361    7362    7362    7363    7363    7364    7364    7365
    7365    7366    7366    7367    7367    7368    7368    7369
    7369    7370    7370    7371    7371    7372    7372    7373
    7373    7374    7374    7375    7375    7376    7376    7377
    7377    7378    7378    7379    7379    7380    7380    7381
    7381    7382    7382    7383    7383    7384    7384    7385
    7385    7386    7386    7387    7387    7388    7388    7389
    7389    7390    7390    7391    7391    7392    7392    7393
    7393    7394    7394    7395    7395    7396    7396    7397
    7397    7398    7398    7399    7399    7400    7400    7401
    7401    7402    7402    7403    7403    7404    7404    7405
    7405    7406    7406    7407    7407    7408    7408    7409
    7409    7410    7410    7411    7411    7412    7412    7413
    7413    7414    7414    7415    7415    7416    7416    7417
    7417    7418    7418    7419    7419    7420    7420    7421
    7421    7422    7422    7423    7423    7424    7424    7425
    7425    7426    7426    7427    7427    7428    7428    7429
    7429    7430    7430    7431    7431    7432    7432    7433
    7433    7434    7434    7435    7435    7436    7436    7437
    7437    7438    7438    7439    7439    7440    7440    7441
    7441    7442    7442    7443    7443    7444    7444    7445
    7445    7446    7446    7447    7447    7448    7448    7449
    7449    7450    7450    7451    7451    7452    7452    7453
    7453    7454    7454    7455    7455    7456    7456    7457
    7457    7458    7458    7459    7459    7460    7460    7461
    7461    7462    7462    7463    7463    7464    7464    7465
    7465    7466    7466    7467    7467    7468    7468    7469
    7469    7470    7470    7471    7471    7472    7472    7473
    7473    7474    7474    7475    7475    7476    7476    7477
    7477    7478    7478    7479    7479    7480    7480    7481
    7481    7482    7482    7483    7483    7484    7484    7485
    7485    7486    7486    7487    7487    7488    7488    7489
    7489    7490    7490    7491    7491    7492    7492    7493
    7493    7494    7494    7495    7495    7496    7496    7497
    7497    7498    7498    7499    7499    7500    7500    7501
    7501    7502    7502    7503    7503    7504    7504    7505
    7505    7506    7506    7507    7507    7508    7508    7509
    7509    7510    7510    7511    7511    7512    7512    7513
    7513    7514    7514    7515    7515    7516    7516    7517
    7517    7518    7518    7519    7519    7520    7520    7521
    7521    7522    7522    7523    7523    7524    7524    7525
    7525    7526    7526    7527    7527    7528    7528    7529
    7529    7530    7530    7531    7531    7532    7532    7533
    7533    7534    7534    7535    7535    7536    7536    7537
    7537    7538    7538    7539    7539    7540    7540    7541
    7541    7542    7542    7543    7543    7544    7544    7545
    7545    7546    7546    7547    7547    7548    7548    7549
    7549    7550    7550    7551    7551    7552    7552    7553
    7553    7554    7554    7555    7555    7556    7556    7557
    7557    7558    7558    7559    7559    7560    7560    7561
    7561    7562    7562    7563    7563    7564    7564    7565
    7565    7566    7566    7567    7567    7568    7568    7569
    7569    7570    7570    7571    7571    7572    7572    7573
    7573    7574    7574    7575    7575    7576    7576    7577
    7577    7578    7578    7579    7579    7580    7580    7581
    7581    7582    7582    7583    7583    7584    7584    7585
    7585    7586    7586    7587    7587    7588    7588    7589
    7589    7590    7590    7591    7591    7592    7592    7593
    7593    7594    7594    7595    7595    7596    7596    7597
    7597    7598    7598    7599    7599    7600    7600    7601
    7601    7602    7602    7603    7603    7604    7604    7605
    7605    7606    7606    7607    7607    7608    7608    7609
    7609    7610    7610    7611    7611    7612    7612    7613
    7613    7614    7614    7615    7615    7616    7616    7617
    7617    7618    7618    7619    7619    7620    7620    7621
    7621    7622    7622    7623    7623    7624    7624    7625
    7625    7626    7626    7627    7627    7628    7628    7629
    7629    7630    7630    7631    7631    7632    7632    7633
    7633    7634    7634    7635    7635    7636    7636    7637
    7637    7638    7638    7639    7639    7640    7640    7641
    7641    7642    7642    7643    7643    7644    7644    7645
    7645    7646    7646    7647    7647    7648    7648    7649
    7649    7650    7650    7651    7651    7652    7652    7653
    7653    7654    7654    7655    7655    7656    7656    7657
    7657    7658    7658    7659    7659    7660    7660    7661
    7661    7662    7662    7663    7663    7664    7664    7665
    7665    7666    7666    7667    7667    7668    7668    7669
    7669    7670    7670    7671    7671    7672    7672    7673
    7673    7674    7674    7675    7675    7676    7676    7677
    7677    7678    7678    7679    7679    7680    7680    7681
    7681    7682    7682    7683    7683    7684    7684    7685
    7685    7686    7686    7687    7687    7688    7688    7689
    7689    7690    7690    7691    7691    7692    7692    7693
    7693    7694    7694    7695    7695    7696    7696    7697
    7697    7698    7698    7699    7699    7700    7700    7701
    7701    7702    7702    7703    7703    7704    7704    7705
    7705    7706    7706    7707    7707    7708    7708    7709
    7709    7710    7710    7711    7711    7712    7712    7713
    7713    7714    7714    7715    7715    7716    7716    7717
    7717    7718    7718    7719    7719    7720    7720    7721
    7721    7722    7722    7723    7723    7724    7724    7725
    7725    7726    7726    7727    7727    7728    7728    7729
    7729    7730    7730    7731    7731    7732    7732    7733
    7733    7734    7734    7735    7735    7736    7736    7737
    7737    7738    7738    7739    7739    7740    7740    7741
    7741    7742    7742    7743    7743    7744    7744    7745
    7745    7746    7746    7747    7747    7748    7748    7749
    7749    7750    7750    7751    7751    7752    7752    7753
    7753    7754    7754    7755    7755    7756    7756    7757
    7757    7758    7758    7759    7759    7760    7760    7761
    7761    7762    7762    7763    7763    7764    7764    7765
    7765    7766    7766    7767    7767    7768    7768    7769
    7769    7770    7770    7771    7771    7772    7772    7773
    7773    7774    7774    7775    7775    7776    7776    7777
    7777    7778    7778    7779    7779    7780    7780    7781
    7781    7782    7782    7783    7783    7784    7784    7785
    7785    7786    7786    7787    7787    7788    7788    7789
    7789    7790    7790    7791    7791    7792    7792    7793
    7793    7794    7794    7795    7795    7796    7796    7797
    7797    7798    7798    7799    7799    7800    7800    7801
    7801    7802    7802    7803    7803    7804    7804    7805
    7805    7806    7806    7807    7807    7808    7808    7809
    7809    7810    7810    7811    7811    7812    7812    7813
    7813    7814    7814    7815    7815    7816    7816    7817
    7817    7818    7818    7819    7819    7820    7820    7821
    7821    7822    7822    7823    7823    7824    7824    7825
    7825    7826    7826    7827    7827    7828    7828    7829
    7829    7830    7830    7831    7831    7832    7832    7833
    7833    7834    7834    7835    7835    7836    7836    7837
    7837    7838    7838    7839    7839    7840    7840    7841
    7841    7842    7842    7843    7843    7844    7844    7845
    7845    7846    7846    7847    7847    7848    7848    7849
    7849    7850    7850    7851    7851    7852    7852    7853
    7853    7854    7854    7855    7855    7856    7856    7857
    7857    7858    7858    7859    7859    7860    7860    7861
    7861    7862    7862    7863    7863    7864    7864    7865
    7865    7866    7866    7867    7867    7868    7868    7869
    7869    7870    7870    7871    7871    7872    7872    7873
    7873    7874    7874    7875    7875    7876    7876    7877
    7877    7878    7878    7879    7879    7880    7880    7881
    7881    7882    7882    7883    7883    7884    7884    7885
    7885    7886    7886    7887    7887    7888    7888    7889
    7889    7890    7890    7891    7891    7892    7892    7893
    7893    7894    7894    7895    7895    7896    7896    7897
    7897    7898    7898    7899    7899    7900    7900    7901
    7901    7902    7902    7903    7903    7904    7904    7905
    7905    7906    7906    7907    7907    7908    7908    7909
    7909    7910    7910    7911    7911    7912    7912    7913
    7913    7914    7914    7915    7915    7916    7916    7917
    7917    7918    7918    7919    7919    7920    7920    7921
    7921    7922    7922    7923    7923    7924    7924    7925
    7925    7926    7926    7927    7927    7928    7928    7929
    7929    7930    7930    7931    7931    7932    7932    7933
    7933    7934    7934    7935    7935    7936    7936    7937
    7937    7938    7938    7939    7939    7940    7940    7941
    7941    7942    7942    7943    7943    7944    7944    7945
    7945    7946    7946    7947    7947    7948    7948    7949
    7949    7950    7950    7951    7951    7952    7952    7953
    7953    7954    7954    7955    7955    7956    7956    7957
    7957    7958    7958    7959    7959    7960    7960    7961
    7961    7962    7962    7963    7963    7964    7964    7965
    7965    7966    7966    7967    7967    7968    7968    7969
    7969    7970    7970    7971    7971    7972    7972    7973
    7973    7974    7974    7975    7975    7976    7976    7977
    7977    7978    7978    7979    7979    7980    7980    7981
    7981    7982    7982    7983    7983    7984    7984    7985
    7985    7986    7986    7987    7987    7988    7988    7989
    7989    7990    7990    7991    7991    7992    7992    7993
    7993    7994    7994    7995    7995    7996    7996    7997
    7997    7998    7998    7999    7999    8000    8000    8001
    8001    8002    8002    8003    8003    8004    8004    8005
    8005    8006    8006    8007    8007    8008    8008    8009
    8009    8010    8010    8011    8011    8012    8012    8013
    8013    8014    8014    8015    8015    8016    8016    8017
    8017    8018    8018    8019    8019    8020    8020    8021
    8021    8022    8022    8023    8023    8024    8024    8025
    8025    8026    8026    8027    8027    8028    8028    8029
    8029    8030    8030    8031    8031    8032    8032    8033
    8033    8034    8034    8035    8035    8036    8036    8037
    8037    8038    8038    8039    8039    8040    8040    8041
    8041    8042    8042    8043    8043    8044    8044    8045
    8045    8046    8046    8047    8047    8048    8048    8049
    8049    8050    8050    8051    8051    8052    8052    8053
    8053    8054    8054    8055    8055    8056    8056    8057
    8057    8058    8058    8059    8059    8060    8060    8061
    8061    8062    8062    8063    8063    8064    8064    8065
    8065    8066    8066    8067    8067    8068    8068    8069
    8069    8070    8070    8071    8071    8072    8072    8073
    8073    8074    8074    8075    8075    8076    8076    8077
    8077    8078    8078    8079    8079    8080    8080    8081
    8081    8082    8082    8083    8083    8084    8084    8085
    8085    8086    8086    8087    8087    8088    8088    8089
    8089    8090    8090    8091    8091    8092    8092    8093
    8093    8094    8094    8095    8095    8096    8096    8097
    8097    8098    8098    8099    8099    8100    8100    8101
    8101    8102    8102    8103    8103    8104    8104    8105
    8105    8106    8106    8107    8107    8108    8108    8109
    8109    8110    8110    8111    8111    8112    8112    8113
    8113    8114    8114    8115    8115    8116    8116    8117
    8117    8118    8118    8119    8119    8120    8120    8121
    8121    8122    8122    8123    8123    8124    8124    8125
    8125    8126    8126    8127    8127    8128    8128    8129
    8129    8130    8130    8131    8131    8132    8132    8133
    8133    8134    8134    8135    8135    8136    8136    8137
    8137    8138    8138    8139    8139    8140    8140    8141
    8141    8142    8142    8143    8143    8144    8144    8145
    8145    8146    8146    8147    8147    8148    8148    8149
    8149    8150    8150    8151    8151    8152    8152    8153
    8153    8154    8154    8155    8155    8156    8156    8157
    8157    8158    8158    8159    8159    8160    8160    8161
    8161    8162    8162    8163    8163    8164    8164    8165
    8165    8166    8166    8167    8167    8168    8168    8169
    8169    8170    8170    8171    8171    8172    8172    8173
    8173    8174    8174    8175    8175    8176    8176    8177
    8177    8178    8178    8179    8179    8180    8180    8181
    8181    8182    8182    8183    8183    8184    8184    8185
    8185    8186    8186    8187    8187    8188    8188    8189
    8189    8190    8190    8191    8191    8192    8192    8193
    8193    8194    8194    8195    8195    8196    8196    8197
    8197    8198    8198    8199    8199    8200    8200    8201
    8201    8202    8202    8203    8203    8204    8204    8205
    8205    8206    8206    8207    8207    8208    8208    8209
    8209    8210    8210    8211    8211    8212    8212    8213
    8213    8214    8214    8215    8215    8216    8216    8217
    8217    8218    8218    8219    8219    8220    8220    8221
    8221    8222    8222    8223    8223    8224    8224    8225
    8225    8226    8226    8227    8227    8228    8228    8229
    8229    8230    8230    8231    8231    8232    8232    8233
    8233    8234    8234    8235    8235    8236    8236    8237
    8237    8238    8238    8239    8239    8240    8240    8241
    8241    8242    8242    8243    8243    8244    8244    8245
    8245    8246    8246    8247    8247    8248    8248    8249
    8249    8250    8250    8251    8251    8252    8252    8253
    8253    8254    8254    8255    8255    8256    8256    8257
    8257    8258    8258    8259    8259    8260    8260    8261
    8261    8262    8262    8263    8263    8264    8264    8265
    8265    8266    8266    8267    8267    8268    8268    8269
    8269    8270    8270    8271    8271    8272    8272    8273
    8273    8274    8274    8275    8275    8276    8276    8277
    8277    8278    8278    8279    8279    8280    8280    8281
    8281    8282    8282    8283    8283    8284    8284    8285
    8285    8286    8286    8287    8287    8288    8288    8289
    8289    8290    8290    8291    8291    8292    8292    8293
    8293    8294    8294    8295    8295    8296    8296    8297
    8297    8298    8298    8299    8299    8300    8300    8301
    8301    8302    8302    8303    8303    8304    8304    8305
    8305    8306    8306    8307    8307    8308    8308    8309
    8309    8310    8310    8311    8311    8312    8312    8313
    8313    8314    8314    8315    8315    8316    8316    8317
    8317    8318    8318    8319    8319    8320    8320    8321
    8321    8322    8322    8323    8323    8324    8324    8325
    8325    8326    8326    8327    8327    8328    8328    8329
    8329    8330    8330    8331    8331    8332    8332    8333
    8333    8334    8334    8335    8335    8336    8336    8337
    8337    8338    8338    8339    8339    8340    8340    8341
    8341    8342    8342    8343    8343    8344    8344    8345
    8345    8346    8346    8347    8347    8348    8348    8349
    8349    8350    8350    8351    8351    8352    8352    8353
    8353    8354    8354    8355    8355    8356    8356    8357
    8357    8358    8358    8359    8359    8360    8360    8361
    8361    8362    8362    8363    8363    8364    8364    8365
    8365    8366    8366    8367    8367    8368    8368    8369
    8369    8370    8370    8371    8371    8372    8372    8373
    8373    8374    8374    8375    8375    8376    8376    8377
    8377    8378    8378    8379    8379    8380    8380    8381
    8381    8382    8382    8383    8383    8384    8384    8385
    8385    8386    8386    8387    8387    8388    8388    8389
    8389    8390    8390    8391    8391    8392    8392    8393
    8393    8394    8394    8395    8395    8396    8396    8397
    8397    8398    8398    8399    8399    8400    8400    8401
    8401    8402    8402    8403    8403    8404    8404    8405
    8405    8406    8406    8407    8407    8408    8408    8409
    8409    8410    8410    8411    8411    8412    8412    8413
    8413    8414    8414    8415    8415    8416    8416    8417
    8417    8418    8418    8419    8419    8420    8420    8421
    8421    8422    8422    8423    8423    8424    8424    8425
    8425    8426    8426    8427    8427    8428    8428    8429
    8429    8430    8430    8431    8431    8432    8432    8433
    8433    8434    8434    8435    8435    8436    8436    8437
    8437    8438    8438    8439    8439    8440    8440    8441
    8441    8442    8442    8443    8443    8444    8444    8445
    8445    8446    8446    8447    8447    8448    8448    8449
    8449    8450    8450    8451    8451    8452    8452    8453
    8453    8454    8454    8455    8455    8456    8456    8457
    8457    8458    8458    8459    8459    8460    8460    8461
    8461    8462    8462    8463    8463    8464    8464    8465
    8465    8466    8466    8467    8467    8468    8468    8469
    8469    8470    8470    8471    8471    8472    8472    8473
    8473    8474    8474    8475    8475    8476    8476    8477
    8477    8478    8478    8479    8479    8480    8480    8481
    8481    8482    8482    8483    8483    8484    8484    8485
    8485    8486    8486    8487    8487    8488    8488    8489
    8489    8490    8490    8491    8491    8492    8492    8493
    8493    8494    8494    8495    8495    8496    8496    8497
    8497    8498    8498    8499    8499    8500    8500    8501
    8501    8502    8502    8503    8503    8504    8504    8505
    8505    8506    8506    8507    8507    8508    8508    8509
    8509    8510    8510    8511    8511    8512    8512    8513
    8513    8514    8514    8515    8515    8516    8516    8517
    8517    8518    8518    8519    8519    8520    8520    8521
    8521    8522    8522    8523    8523    8524    8524    8525
    8525    8526    8526    8527    8527    8528    8528    8529
    8529    8530    8530    8531    8531    8532    8532    8533
    8533    8534    8534    8535    8535    8536    8536    8537
    8537    8538    8538    8539    8539    8540    8540    8541
    8541    8542    8542    8543    8543    8544    8544    8545
    8545    8546    8546    8547    8547    8548    8548    8549
    8549    8550    8550    8551    8551    8552    8552    8553
    8553    8554    8554    8555    8555    8556    8556    8557
    8557    8558    8558    8559    8559    8560    8560    8561
    8561    8562    8562    8563    8563    8564    8564    8565
    8565    8566    8566    8567    8567    8568    8568    8569
    8569    8570    8570    8571    8571    8572    8572    8573
    8573    8574    8574    8575    8575    8576    8576    8577
    8577    8578    8578    8579    8579    8580    8580    8581
    8581    8582    8582    8583    8583    8584    8584    8585
    8585    8586    8586    8587    8587    8588    8588    8589
    8589    8590    8590    8591    8591    8592    8592    8593
    8593    8594    8594    8595    8595    8596    8596    8597
    8597    8598    8598    8599    8599    8600    8600    8601
    8601    8602    8602    8603    8603    8604    8604    8605
    8605    8606    8606    8607    8607    8608    8608    8609
    8609    8610    8610    8611    8611    8612    8612    8613
    8613    8614    8614    8615    8615    8616    8616    8617
    8617    8618    8618    8619    8619    8620    8620    8621
    8621    8622    8622    8623    8623    8624    8624    8625
    8625    8626    8626    8627    8627    8628    8628    8629
    8629    8630    8630    8631    8631    8632    8632    8633
    8633    8634    8634    8635    8635    8636    8636    8637
    8637    8638    8638    8639    8639    8640    8640    8641
    8641    8642    8642    8643    8643    8644    8644    8645
    8645    8646    8646    8647    8647    8648    8648    8649
    8649    8650    8650    8651    8651    8652    8652    8653
    8653    8654    8654    8655    8655    8656    8656    8657
    8657    8658    8658    8659    8659    8660    8660    8661
    8661    8662    8662    8663    8663    8664    8664    8665
    8665    8666    8666    8667    8667    8668    8668    8669
    8669    8670    8670    8671    8671    8672    8672    8673
    8673    8674    8674    8675    8675    8676    8676    8677
    8677    8678    8678    8679    8679    8680    8680    8681
    8681    8682    8682    8683    8683    8684    8684    8685
    8685    8686    8686    8687    8687    8688    8688    8689
    8689    8690    8690    8691    8691    8692    8692    8693
    8693    8694    8694    8695    8695    8696    8696    8697
    8697    8698    8698    8699    8699    8700    8700    8701
    8701    8702    8702    8703    8703    8704    8704    8705
    8705    8706    8706    8707    8707    8708    8708    8709
    8709    8710    8710    8711    8711    8712    8712    8713
    8713    8714    8714    8715    8715    8716    8716    8717
    8717    8718    8718    8719    8719    8720    8720    8721
    8721    8722    8722    8723    8723    8724    8724    8725
    8725    8726    8726    8727    8727    8728    8728    8729
    8729    8730    8730    8731    8731    8732    8732    8733
    8733    8734    8734    8735    8735    8736    8736    8737
    8737    8738    8738    8739    8739    8740    8740    8741
    8741    8742    8742    8743    8743    8744    8744    8745
    8745    8746    8746    8747    8747    8748    8748    8749
    8749    8750    8750    8751    8751    8752    8752    8753
    8753    8754    8754    8755    8755    8756    8756    8757
    8757    8758    8758    8759    8759    8760    8760    8761
    8761    8762    8762    8763    8763    8764    8764    8765
    8765    8766    8766    8767    8767    8768    8768    8769
    8769    8770    8770    8771    8771    8772    8772    8773
    8773    8774    8774    8775    8775    8776    8776    8777
    8777    8778    8778    8779    8779    8780    8780    8781
    8781    8782    8782    8783    8783    8784    8784    8785
    8785    8786    8786    8787    8787    8788    8788    8789
    8789    8790    8790    8791    8791    8792    8792    8793
    8793    8794    8794    8795    8795    8796    8796    8797
    8797    8798    8798    8799    8799    8800    8800    8801
    8801    8802    8802    8803    8803    8804    8804    8805
    8805    8806    8806    8807    8807    8808    8808    8809
    8809    8810    8810    8811    8811    8812    8812    8813
    8813    8814    8814    8815    8815    8816    8816    8817
    8817    8818    8818    8819    8819    8820    8820    8821
    8821    8822    8822    8823    8823    8824    8824    8825
    8825    8826    8826    8827    8827    8828    8828    8829
    8829    8830    8830    8831    8831    8832    8832    8833
    8833    8834    8834    8835    8835    8836    8836    8837
    8837    8838    8838    8839    8839    8840    8840    8841
    8841    8842    8842    8843    8843    8844    8844    8845
    8845    8846    8846    8847    8847    8848    8848    8849
    8849    8850    8850    8851    8851    8852    8852    8853
    8853    8854    8854    8855    8855    8856    8856    8857
    8857    8858    8858    8859    8859    8860    8860    8861
    8861    8862    8862    8863    8863    8864    8864    8865
    8865    8866    8866    8867    8867    8868    8868    8869
    8869    8870    8870    8871    8871    8872    8872    8873
    8873    8874    8874    8875    8875    8876    8876    8877
    8877    8878    8878    8879    8879    8880    8880    8881
    8881    8882    8882    8883    8883    8884    8884    8885
    8885    8886    8886    8887    8887    8888    8888    8889
    8889    8890    8890    8891    8891    8892    8892    8893
    8893    8894    8894    8895    8895    8896    8896    8897
    8897    8898    8898    8899    8899    8900    8900    8901
    8901    8902    8902    8903    8903    8904    8904    8905
    8905    8906    8906    8907    8907    8908    8908    8909
    8909    8910    8910    8911    8911    8912    8912    8913
    8913    8914    8914    8915    8915    8916    8916    8917
    8917    8918    8918    8919    8919    8920    8920    8921
    8921    8922    8922    8923    8923    8924    8924    8925
    8925    8926    8926    8927    8927    8928    8928    8929
    8929    8930    8930    8931    8931    8932    8932    8933
    8933    8934    8934    8935    8935    8936    8936    8937
    8937    8938    8938    8939    8939    8940    8940    8941
    8941    8942    8942    8943    8943    8944    8944    8945
    8945    8946    8946    8947    8947    8948    8948    8949
    8949    8950    8950    8951    8951    8952    8952    8953
    8953    8954    8954    8955    8955    8956    8956    8957
    8957    8958    8958    8959    8959    8960    8960    8961
    8961    8962    8962    8963    8963    8964    8964    8965
    8965    8966    8966    8967    8967    8968    8968    8969
    8969    8970    8970    8971    8971    8972    8972    8973
    8973    8974    8974    8975    8975    8976    8976    8977
    8977    8978    8978    8979    8979    8980    8980    8981
    8981    8982    8982    8983    8983    8984    8984    8985
    8985    8986    8986    8987    8987    8988    8988    8989
    8989    8990    8990    8991    8991    8992    8992    8993
    8993    8994    8994    8995    8995    8996    8996    8997
    8997    8998    8998    8999    8999    9000    9000    9001
    9001    9002    9002    9003    9003    9004    9004    9005
    9005    9006    9006    9007    9007    9008    9008    9009
    9009    9010    9010    9011    9011    9012    9012    9013
    9013    9014    9014    9015    9015    9016    9016    9017
    9017    9018    9018    9019    9019    9020    9020    9021
    9021    9022    9022    9023    9023    9024    9024    9025
    9025    9026    9026    9027    9027    9028    9028    9029
    9029    9030    9030    9031    9031    9032    9032    9033
    9033    9034    9034    9035    9035    9036    9036    9037
    9037    9038    9038    9039    9039    9040    9040    9041
    9041    9042    9042    9043    9043    9044    9044    9045
    9045    9046    9046    9047    9047    9048    9048    9049
    9049    9050    9050    9051    9051    9052    9052    9053
    9053    9054    9054    9055    9055    9056    9056    9057
    9057    9058    9058    9059    9059    9060    9060    9061
    9061    9062    9062    9063    9063    9064    9064    9065
    9065    9066    9066    9067    9067    9068    9068    9069
    9069    9070    9070    9071    9071    9072    9072    9073
    9073    9074    9074    9075    9075    9076    9076    9077
    9077    9078    9078    9079    9079    9080    9080    9081
    9081    9082    9082    9083    9083    9084    9084    9085
    9085    9086    9086    9087    9087    9088    9088    9089
    9089    9090    9090    9091    9091    9092    9092    9093
    9093    9094    9094    9095    9095    9096    9096    9097
    9097    9098    9098    9099    9099    9100    9100    9101
    9101    9102    9102    9103    9103    9104    9104    9105
    9105    9106    9106    9107    9107    9108    9108    9109
    9109    9110    9110    9111    9111    9112    9112    9113
    9113    9114    9114    9115    9115    9116    9116    9117
    9117    9118    9118    9119    9119    9120    9120    9121
    9121    9122    9122    9123    9123    9124    9124    9125
    9125    9126    9126    9127    9127    9128    9128    9129
    9129    9130    9130    9131    9131    9132    9132    9133
    9133    9134    9134    9135    9135    9136    9136    9137
    9137    9138    9138    9139    9139    9140    9140    9141
    9141    9142    9142    9143    9143    9144    9144    9145
    9145    9146    9146    9147    9147    9148    9148    9149
    9149    9150    9150    9151    9151    9152    9152    9153
    9153    9154    9154    9155    9155    9156    9156    9157
    9157    9158    9158    9159    9159    9160    9160    9161
    9161    9162    9162    9163    9163    9164    9164    9165
    9165    9166    9166    9167    9167    9168    9168    9169
    9169    9170    9170    9171    9171    9172    9172    9173
    9173    9174    9174    9175    9175    9176    9176    9177
    9177    9178    9178    9179    9179    9180    9180    9181
    9181    9182    9182    9183    9183    9184    9184    9185
    9185    9186    9186    9187    9187    9188    9188    9189
    9189    9190    9190    9191    9191    9192    9192    9193
    9193    9194    9194    9195    9195    9196    9196    9197
    9197    9198    9198    9199    9199    9200    9200    9201
    9201    9202    9202    9203    9203    9204    9204    9205
    9205    9206    9206    9207    9207    9208    9208    9209
    9209    9210    9210    9211    9211    9212    9212    9213
    9213    9214    9214    9215    9215    9216    9216    9217
    9217    9218    9218    9219    9219    9220    9220    9221
    9221    9222    9222    9223    9223    9224    9224    9225
    9225    9226    9226    9227    9227    9228    9228    9229
    9229    9230    9230    9231    9231    9232    9232    9233
    9233    9234    9234    9235    9235    9236    9236    9237
    9237    9238    9238    9239    9239    9240    9240    9241
    9241    9242    9242    9243    9243    9244    9244    9245
    9245    9246    9246    9247    9247    9248    9248    9249
    9249    9250    9250    9251    9251    9252    9252    9253
    9253    9254    9254    9255    9255    9256    9256    9257
    9257    9258    9258    9259    9259    9260    9260    9261
    9261    9262    9262    9263    9263    9264    9264    9265
    9265    9266    9266    9267    9267    9268    9268    9269
    9269    9270    9270    9271    9271    9272    9272    9273
    9273    9274    9274    9275    9275    9276    9276    9277
    9277    9278    9278    9279    9279    9280    9280    9281
    9281    9282    9282    9283    9283    9284    9284    9285
    9285    9286    9286    9287    9287    9288    9288    9289
    9289    9290    9290    9291    9291    9292    9292    9293
    9293    9294    9294    9295    9295    9296    9296    9297
    9297    9298    9298    9299    9299    9300    9300    9301
    9301    9302    9302    9303    9303    9304    9304    9305
    9305    9306    9306    9307    9307    9308    9308    9309
    9309    9310    9310    9311    9311    9312    9312    9313
    9313    9314    9314    9315    9315    9316    9316    9317
    9317    9318    9318    9319    9319    9320    9320    9321
    9321    9322    9322    9323    9323    9324    9324    9325
    9325    9326    9326    9327    9327    9328    9328    9329
    9329    9330    9330    9331    9331    9332    9332    9333
    9333    9334    9334    9335    9335    9336    9336    9337
    9337    9338    9338    9339    9339    9340    9340    9341
    9341    9342    9342    9343    9343    9344    9344    9345
    9345    9346    9346    9347    9347    9348    9348    9349
    9349    9350    9350    9351    9351    9352    9352    9353
    9353    9354    9354    9355    9355    9356    9356    9357
    9357    9358    9358    9359    9359    9360    9360    9361
    9361    9362    9362    9363    9363    9364    9364    9365
    9365    9366    9366    9367    9367    9368    9368    9369
    9369    9370    9370    9371    9371    9372    9372    9373
    9373    9374    9374    9375    9375    9376    9376    9377
    9377    9378    9378    9379    9379    9380    9380    9381
    9381    9382    9382    9383    9383    9384    9384    9385
    9385    9386    9386    9387    9387    9388    9388    9389
    9389    9390    9390    9391    9391    9392    9392    9393
    9393    9394    9394    9395    9395    9396    9396    9397
    9397    9398    9398    9399    9399    9400    9400    9401
    9401    9402    9402    9403    9403    9404    9404    9405
    9405    9406    9406    9407    9407    9408    9408    9409
    9409    9410    9410    9411    9411    9412    9412    9413
    9413    9414    9414    9415    9415    9416    9416    9417
    9417    9418    9418    9419    9419    9420    9420    9421
    9421    9422    9422    9423    9423    9424    9424    9425
    9425    9426    9426    9427    9427    9428    9428    9429
    9429    9430    9430    9431    9431    9432    9432    9433
    9433    9434    9434    9435    9435    9436    9436    9437
    9437    9438    9438    9439    9439    9440    9440    9441
    9441    9442    9442    9443    9443    9444    9444    9445
    9445    9446    9446    9447    9447    9448    9448    9449
    9449    9450    9450    9451    9451    9452    9452    9453
    9453    9454    9454    9455    9455    9456    9456    9457
    9457    9458    9458    9459    9459    9460    9460    9461
    9461    9462    9462    9463    9463    9464    9464    9465
    9465    9466    9466    9467    9467    9468    9468    9469
    9469    9470    9470    9471    9471    9472    9472    9473
    9473    9474    9474    9475    9475    9476    9476    9477
    9477    9478    9478    9479    9479    9480    9480    9481
    9481    9482    9482    9483    9483    9484    9484    9485
    9485    9486    9486    9487    9487    9488    9488    9489
    9489    9490    9490    9491    9491    9492    9492    9493
    9493    9494    9494    9495    9495    9496    9496    9497
    9497    9498    9498    9499    9499    9500    9500    9501
    9501    9502    9502    9503    9503    9504    9504    9505
    9505    9506    9506    9507    9507    9508    9508    9509
    9509    9510    9510    9511    9511    9512    9512    9513
    9513    9514    9514    9515    9515    9516    9516    9517
    9517    9518    9518    9519    9519    9520    9520    9521
    9521    9522    9522    9523    9523    9524    9524    9525
    9525    9526    9526    9527    9527    9528    9528    9529
    9529    9530    9530    9531    9531    9532    9532    9533
    9533    9534    9534    9535    9535    9536    9536    9537
    9537    9538    9538    9539    9539    9540    9540    9541
    9541    9542    9542    9543    9543    9544    9544    9545
    9545    9546    9546    9547    9547    9548    9548    9549
    9549    9550    9550    9551    9551    9552    9552    9553
    9553    9554    9554    9555    9555    9556    9556    9557
    9557    9558    9558    9559    9559    9560    9560    9561
    9561    9562    9562    9563    9563    9564    9564    9565
    9565    9566    9566    9567    9567    9568    9568    9569
    9569    9570    9570    9571    9571    9572    9572    9573
    9573    9574    9574    9575    9575    9576    9576    9577
    9577    9578    9578    9579    9579    9580    9580    9581
    9581    9582    9582    9583    9583    9584    9584    9585
    9585    9586    9586    9587    9587    9588    9588    9589
    9589    9590    9590    9591    9591    9592    9592    9593
    9593    9594    9594    9595    9595    9596    9596    9597
    9597    9598    9598    9599    9599    9600    9600    9601
    9601    9602    9602    9603    9603    9604    9604    9605
    9605    9606    9606    9607    9607    9608    9608    9609
    9609    9610    9610    9611    9611    9612    9612    9613
    9613    9614    9614    9615    9615    9616    9616    9617
    9617    9618    9618    9619    9619    9620    9620    9621
    9621    9622    9622    9623    9623    9624    9624    9625
    9625    9626    9626    9627    9627    9628    9628    9629
    9629    9630    9630    9631    9631    9632    9632    9633
    9633    9634    9634    9635    9635    9636    9636    9637
    9637    9638    9638    9639    9639    9640    9640    9641
    9641    9642    9642    9643    9643    9644    9644    9645
    9645    9646    9646    9647    9647    9648    9648    9649
    9649    9650    9650    9651    9651    9652    9652    9653
    9653    9654    9654    9655    9655    9656    9656    9657
    9657    9658    9658    9659    9659    9660    9660    9661
    9661    9662    9662    9663    9663    9664    9664    9665
    9665    9666    9666    9667    9667    9668    9668    9669
    9669    9670    9670    9671    9671    9672    9672    9673
    9673    9674    9674    9675    9675    9676    9676    9677
    9677    9678    9678    9679    9679    9680    9680    9681
    9681    9682    9682    9683    9683    9684    9684    9685
    9685    9686    9686    9687    9687    9688    9688    9689
    9689    9690    9690    9691    9691    9692    9692    9693
    9693    9694    9694    9695    9695    9696    9696    9697
    9697    9698    9698    9699    9699    9700    9700    9701
    9701    9702    9702    9703    9703    9704    9704    9705
    9705    9706    9706    9707    9707    9708    9708    9709
    9709    9710    9710    9711    9711    9712    9712    9713
    9713    9714    9714    9715    9715    9716    9716    9717
    9717    9718    9718    9719    9719    9720    9720    9721
    9721    9722    9722    9723    9723    9724    9724    9725
    9725    9726    9726    9727    9727    9728    9728    9729
    9729    9730    9730    9731    9731    9732    9732    9733
    9733    9734    9734    9735    9735    9736    9736    9737
    9737    9738    9738    9739    9739    9740    9740    9741
    9741    9742    9742    9743    9743    9744    9744    9745
    9745    9746    9746    9747    9747    9748    9748    9749
    9749    9750    9750    9751    9751    9752    9752    9753
    9753    9754    9754    9755    9755    9756    9756    9757
    9757    9758    9758    9759    9759    9760    9760    9761
    9761    9762    9762    9763    9763    9764    9764    9765
    9765    9766    9766    9767    9767    9768    9768    9769
    9769    9770    9770    9771    9771    9772    9772    9773
    9773    9774    9774    9775    9775    9776    9776    9777
    9777    9778    9778    9779    9779    9780    9780    9781
    9781    9782    9782    9783    9783    9784    9784    9785
    9785    9786    9786    9787    9787    9788    9788    9789
    9789    9790    9790    9791    9791    9792    9792    9793
    9793    9794    9794    9795    9795    9796    9796    9797
    9797    9798    9798    9799    9799    9800    9800    9801
    9801    9802    9802    9803    9803    9804    9804    9805
    9805    9806    9806    9807    9807    9808    9808    9809
    9809    9810    9810    9811    9811    9812    9812    9813
    9813    9814    9814    9815    9815    9816    9816    9817
    9817    9818    9818    9819    9819    9820    9820    9821
    9821    9822    9822    9823    9823    9824    9824    9825
    9825    9826    9826    9827    9827    9828    9828    9829
    9829    9830    9830    9831    9831    9832    9832    9833
    9833    9834    9834    9835    9835    9836    9836    9837
    9837    9838    9838    9839    9839    9840    9840    9841
    9841    9842    9842    9843    9843    9844    9844    9845
    9845    9846    9846    9847    9847    9848    9848    9849
    9849    9850    9850    9851    9851    9852    9852    9853
    9853    9854    9854    9855    9855    9856    9856    9857
    9857    9858    9858    9859    9859    9860    9860    9861
    9861    9862    9862    9863    9863    9864    9864    9865
    9865    9866    9866    9867    9867    9868    9868    9869
    9869    9870    9870    9871    9871    9872    9872    9873
    9873    9874    9874    9875    9875    9876    9876    9877
    9877    9878    9878    9879    9879    9880    9880    9881
    9881    9882    9882    9883    9883    9884    9884    9885
    9885    9886    9886    9887    9887    9888    9888    9889
    9889    9890    9890    9891    9891    9892    9892    9893
    9893    9894    9894    9895    9895    9896    9896    9897
    9897    9898    9898    9899    9899    9900    9900    9901
    9901    9902    9902    9903    9903    9904    9904    9905
    9905    9906    9906    9907    9907    9908    9908    9909
    9909    9910    9910    9911    9911    9912    9912    9913
    9913    9914    9914    9915    9915    9916    9916    9917
    9917    9918    9918    9919    9919    9920    9920    9921
    9921    9922    9922    9923    9923    9924    9924    9925
    9925    9926    9926    9927    9927    9928    9928    9929
    9929    9930    9930    9931    9931    9932    9932    9933
    9933    9934    9934    9935    9935    9936    9936    9937
    9937    9938    9938    9939    9939    9940    9940    9941
    9941    9942    9942    9943    9943    9944    9944    9945
    9945    9946    9946    9947    9947    9948    9948    9949
    9949    9950    9950    9951    9951    9952    9952    9953
    9953    9954    9954    9955    9955    9956    9956    9957
    9957    9958    9958    9959    9959    9960    9960    9961
    9961    9962    9962    9963    9963    9964    9964    9965
    9965    9966    9966    9967    9967    9968    9968    9969
    9969    9970    9970    9971    9971    9972    9972    9973
    9973    9974    9974    9975    9975    9976    9976    9977
    9977    9978    9978    9979    9979    9980    9980    9981
    9981    9982    9982    9983    9983    9984    9984    9985
    9985    9986    9986    9987    9987    9988    9988    9989
    9989    9990    9990    9991    9991    9992    9992    9993
    9993    9994    9994    9995    9995    9996    9996    9997
    9997    9998    9998    9999    9999   10000
